 Entering Gaussian System, Link 0=/opt/g09/g09
 Initial command:
 /opt/g09/l1.exe /tmp/Gau-9413.inp -scrdir=/tmp/
 Entering Link 1 = /opt/g09/l1.exe PID=      9415.
  
 Copyright (c) 1988,1990,1992,1993,1995,1998,2003,2009,2011,
            Gaussian, Inc.  All Rights Reserved.
  
 This is part of the Gaussian(R) 09 program.  It is based on
 the Gaussian(R) 03 system (copyright 2003, Gaussian, Inc.),
 the Gaussian(R) 98 system (copyright 1998, Gaussian, Inc.),
 the Gaussian(R) 94 system (copyright 1995, Gaussian, Inc.),
 the Gaussian 92(TM) system (copyright 1992, Gaussian, Inc.),
 the Gaussian 90(TM) system (copyright 1990, Gaussian, Inc.),
 the Gaussian 88(TM) system (copyright 1988, Gaussian, Inc.),
 the Gaussian 86(TM) system (copyright 1986, Carnegie Mellon
 University), and the Gaussian 82(TM) system (copyright 1983,
 Carnegie Mellon University). Gaussian is a federally registered
 trademark of Gaussian, Inc.
  
 This software contains proprietary and confidential information,
 including trade secrets, belonging to Gaussian, Inc.
  
 This software is provided under written license and may be
 used, copied, transmitted, or stored only in accord with that
 written license.
  
 The following legend is applicable only to US Government
 contracts under FAR:
  
                    RESTRICTED RIGHTS LEGEND
  
 Use, reproduction and disclosure by the US Government is
 subject to restrictions as set forth in subparagraphs (a)
 and (c) of the Commercial Computer Software - Restricted
 Rights clause in FAR 52.227-19.
  
 Gaussian, Inc.
 340 Quinnipiac St., Bldg. 40, Wallingford CT 06492
  
  
 ---------------------------------------------------------------
 Warning -- This program may not be used in any manner that
 competes with the business of Gaussian, Inc. or will provide
 assistance to any competitor of Gaussian, Inc.  The licensee
 of this program is prohibited from giving any competitor of
 Gaussian, Inc. access to this program.  By using this program,
 the user acknowledges that Gaussian, Inc. is engaged in the
 business of creating and licensing software in the field of
 computational chemistry and represents and warrants to the
 licensee that it is not a competitor of Gaussian, Inc. and that
 it will not use this program in any manner prohibited above.
 ---------------------------------------------------------------
  

 Cite this work as:
 Gaussian 09, Revision C.01,
 M. J. Frisch, G. W. Trucks, H. B. Schlegel, G. E. Scuseria, 
 M. A. Robb, J. R. Cheeseman, G. Scalmani, V. Barone, B. Mennucci, 
 G. A. Petersson, H. Nakatsuji, M. Caricato, X. Li, H. P. Hratchian, 
 A. F. Izmaylov, J. Bloino, G. Zheng, J. L. Sonnenberg, M. Hada, 
 M. Ehara, K. Toyota, R. Fukuda, J. Hasegawa, M. Ishida, T. Nakajima, 
 Y. Honda, O. Kitao, H. Nakai, T. Vreven, J. A. Montgomery, Jr., 
 J. E. Peralta, F. Ogliaro, M. Bearpark, J. J. Heyd, E. Brothers, 
 K. N. Kudin, V. N. Staroverov, T. Keith, R. Kobayashi, J. Normand, 
 K. Raghavachari, A. Rendell, J. C. Burant, S. S. Iyengar, J. Tomasi, 
 M. Cossi, N. Rega, J. M. Millam, M. Klene, J. E. Knox, J. B. Cross, 
 V. Bakken, C. Adamo, J. Jaramillo, R. Gomperts, R. E. Stratmann, 
 O. Yazyev, A. J. Austin, R. Cammi, C. Pomelli, J. W. Ochterski, 
 R. L. Martin, K. Morokuma, V. G. Zakrzewski, G. A. Voth, 
 P. Salvador, J. J. Dannenberg, S. Dapprich, A. D. Daniels, 
 O. Farkas, J. B. Foresman, J. V. Ortiz, J. Cioslowski, 
 and D. J. Fox, Gaussian, Inc., Wallingford CT, 2010.
 
 ******************************************
 Gaussian 09:  EM64L-G09RevC.01 23-Sep-2011
                 6-Mar-2016 
 ******************************************
 %mem=40GB
 %nprocshared=23
 Will use up to   23 processors via shared memory.
 %chk=1_b3lyp6311_rot_me.chk
 ---------------------------------------
 # opt=modredundant rb3lyp/6-311+g(2d,p)
 ---------------------------------------
 1/14=-1,18=120,19=15,26=3,38=1/1,3;
 2/9=110,12=2,17=6,18=5,40=1/2;
 3/5=4,6=6,7=112,11=2,16=1,25=1,30=1,71=1,74=-5,116=1/1,2,3;
 4//1;
 5/5=2,38=5/2;
 6/7=2,8=2,9=2,10=2,28=1/1;
 7//1,2,3,16;
 1/14=-1,18=20,19=15/3(2);
 2/9=110/2;
 99//99;
 2/9=110/2;
 3/5=4,6=6,7=112,11=2,16=1,25=1,30=1,71=1,74=-5,116=1/1,2,3;
 4/5=5,16=3/1;
 5/5=2,38=5/2;
 7//1,2,3,16;
 1/14=-1,18=20,19=15/3(-5);
 2/9=110/2;
 6/7=2,8=2,9=2,10=2,19=2,28=1/1;
 99/9=1/99;
 -------------------
 Title Card Required
 -------------------
 Charge =  0 Multiplicity = 1
 Symbolic Z-Matrix:
 C                     0.64139  -1.45326  -0.11897 
 C                     1.93627  -0.72816   0.24501 
 C                     1.90885   0.6959   -0.30776 
 C                     0.63573   1.41085   0.13059 
 C                    -0.61348  -0.67245   0.29768 
 H                     2.77951   1.2644    0.03226 
 H                     2.04122  -0.69274   1.33606 
 H                     2.80217  -1.27766  -0.13523 
 H                     0.60103  -1.61323  -1.20227 
 H                     0.61133  -2.43987   0.35256 
 H                     0.65865   1.5566    1.22913 
 H                     0.59287   2.40656  -0.31792 
 H                    -0.6182   -0.60286   1.40504 
 H                     1.94341   0.67021  -1.40166 
 C                    -1.86558  -1.43871  -0.13288 
 H                    -1.79149  -2.47686   0.19832 
 H                    -2.7805   -1.02704   0.29405 
 H                    -1.95976  -1.4335   -1.22197 
 C                    -1.75401   1.4784    0.04716 
 H                    -2.64947   1.03971  -0.39009 
 H                    -1.91658   1.58641   1.13552 
 H                    -1.63789   2.47851  -0.37419 
 N                    -0.57305   0.68656  -0.27209 
 
 The following ModRedundant input section has been read:
 D      22      19      23       5 S  18 20.000                                

 GradGradGradGradGradGradGradGradGradGradGradGradGradGradGradGradGradGrad
 Berny optimization.
 Initialization pass.
                           ----------------------------
                           !    Initial Parameters    !
                           ! (Angstroms and Degrees)  !
 --------------------------                            --------------------------
 ! Name  Definition              Value          Derivative Info.                !
 --------------------------------------------------------------------------------
 ! R1    R(1,2)                  1.5281         estimate D2E/DX2                !
 ! R2    R(1,5)                  1.5356         estimate D2E/DX2                !
 ! R3    R(1,9)                  1.0958         estimate D2E/DX2                !
 ! R4    R(1,10)                 1.0939         estimate D2E/DX2                !
 ! R5    R(2,3)                  1.5278         estimate D2E/DX2                !
 ! R6    R(2,7)                  1.0967         estimate D2E/DX2                !
 ! R7    R(2,8)                  1.0938         estimate D2E/DX2                !
 ! R8    R(3,4)                  1.5245         estimate D2E/DX2                !
 ! R9    R(3,6)                  1.094          estimate D2E/DX2                !
 ! R10   R(3,14)                 1.0947         estimate D2E/DX2                !
 ! R11   R(4,11)                 1.1084         estimate D2E/DX2                !
 ! R12   R(4,12)                 1.0929         estimate D2E/DX2                !
 ! R13   R(4,23)                 1.4656         estimate D2E/DX2                !
 ! R14   R(5,13)                 1.1096         estimate D2E/DX2                !
 ! R15   R(5,15)                 1.5298         estimate D2E/DX2                !
 ! R16   R(5,23)                 1.4742         estimate D2E/DX2                !
 ! R17   R(15,16)                1.0922         estimate D2E/DX2                !
 ! R18   R(15,17)                1.0903         estimate D2E/DX2                !
 ! R19   R(15,18)                1.0932         estimate D2E/DX2                !
 ! R20   R(19,20)                1.0888         estimate D2E/DX2                !
 ! R21   R(19,21)                1.1057         estimate D2E/DX2                !
 ! R22   R(19,22)                1.0914         estimate D2E/DX2                !
 ! R23   R(19,23)                1.4573         estimate D2E/DX2                !
 ! A1    A(2,1,5)              112.742          estimate D2E/DX2                !
 ! A2    A(2,1,9)              109.6312         estimate D2E/DX2                !
 ! A3    A(2,1,10)             110.4012         estimate D2E/DX2                !
 ! A4    A(5,1,9)              108.2023         estimate D2E/DX2                !
 ! A5    A(5,1,10)             108.6138         estimate D2E/DX2                !
 ! A6    A(9,1,10)             107.0652         estimate D2E/DX2                !
 ! A7    A(1,2,3)              109.9319         estimate D2E/DX2                !
 ! A8    A(1,2,7)              109.4756         estimate D2E/DX2                !
 ! A9    A(1,2,8)              110.4664         estimate D2E/DX2                !
 ! A10   A(3,2,7)              109.364          estimate D2E/DX2                !
 ! A11   A(3,2,8)              110.8978         estimate D2E/DX2                !
 ! A12   A(7,2,8)              106.6382         estimate D2E/DX2                !
 ! A13   A(2,3,4)              110.3696         estimate D2E/DX2                !
 ! A14   A(2,3,6)              110.9539         estimate D2E/DX2                !
 ! A15   A(2,3,14)             109.8207         estimate D2E/DX2                !
 ! A16   A(4,3,6)              109.363          estimate D2E/DX2                !
 ! A17   A(4,3,14)             108.9467         estimate D2E/DX2                !
 ! A18   A(6,3,14)             107.3151         estimate D2E/DX2                !
 ! A19   A(3,4,11)             109.2308         estimate D2E/DX2                !
 ! A20   A(3,4,12)             109.9996         estimate D2E/DX2                !
 ! A21   A(3,4,23)             112.2105         estimate D2E/DX2                !
 ! A22   A(11,4,12)            106.7229         estimate D2E/DX2                !
 ! A23   A(11,4,23)            110.7541         estimate D2E/DX2                !
 ! A24   A(12,4,23)            107.7669         estimate D2E/DX2                !
 ! A25   A(1,5,13)             107.8283         estimate D2E/DX2                !
 ! A26   A(1,5,15)             109.7427         estimate D2E/DX2                !
 ! A27   A(1,5,23)             109.9667         estimate D2E/DX2                !
 ! A28   A(13,5,15)            107.9884         estimate D2E/DX2                !
 ! A29   A(13,5,23)            109.1495         estimate D2E/DX2                !
 ! A30   A(15,5,23)            112.051          estimate D2E/DX2                !
 ! A31   A(5,15,16)            109.5869         estimate D2E/DX2                !
 ! A32   A(5,15,17)            112.7973         estimate D2E/DX2                !
 ! A33   A(5,15,18)            110.3972         estimate D2E/DX2                !
 ! A34   A(16,15,17)           107.2813         estimate D2E/DX2                !
 ! A35   A(16,15,18)           108.2084         estimate D2E/DX2                !
 ! A36   A(17,15,18)           108.4215         estimate D2E/DX2                !
 ! A37   A(20,19,21)           108.2842         estimate D2E/DX2                !
 ! A38   A(20,19,22)           107.5572         estimate D2E/DX2                !
 ! A39   A(20,19,23)           111.0745         estimate D2E/DX2                !
 ! A40   A(21,19,22)           107.8252         estimate D2E/DX2                !
 ! A41   A(21,19,23)           112.8219         estimate D2E/DX2                !
 ! A42   A(22,19,23)           109.0937         estimate D2E/DX2                !
 ! A43   A(4,23,5)             111.8404         estimate D2E/DX2                !
 ! A44   A(4,23,19)            109.8571         estimate D2E/DX2                !
 ! A45   A(5,23,19)            113.205          estimate D2E/DX2                !
 ! D1    D(5,1,2,3)            -52.9623         estimate D2E/DX2                !
 ! D2    D(5,1,2,7)             67.1925         estimate D2E/DX2                !
 ! D3    D(5,1,2,8)           -175.6686         estimate D2E/DX2                !
 ! D4    D(9,1,2,3)             67.6433         estimate D2E/DX2                !
 ! D5    D(9,1,2,7)           -172.2019         estimate D2E/DX2                !
 ! D6    D(9,1,2,8)            -55.0629         estimate D2E/DX2                !
 ! D7    D(10,1,2,3)          -174.641          estimate D2E/DX2                !
 ! D8    D(10,1,2,7)           -54.4862         estimate D2E/DX2                !
 ! D9    D(10,1,2,8)            62.6528         estimate D2E/DX2                !
 ! D10   D(2,1,5,13)           -64.1909         estimate D2E/DX2                !
 ! D11   D(2,1,5,15)           178.4164         estimate D2E/DX2                !
 ! D12   D(2,1,5,23)            54.7209         estimate D2E/DX2                !
 ! D13   D(9,1,5,13)           174.3888         estimate D2E/DX2                !
 ! D14   D(9,1,5,15)            56.9962         estimate D2E/DX2                !
 ! D15   D(9,1,5,23)           -66.6993         estimate D2E/DX2                !
 ! D16   D(10,1,5,13)           58.494          estimate D2E/DX2                !
 ! D17   D(10,1,5,15)          -58.8986         estimate D2E/DX2                !
 ! D18   D(10,1,5,23)          177.4058         estimate D2E/DX2                !
 ! D19   D(1,2,3,4)             52.599          estimate D2E/DX2                !
 ! D20   D(1,2,3,6)            173.9915         estimate D2E/DX2                !
 ! D21   D(1,2,3,14)           -67.5322         estimate D2E/DX2                !
 ! D22   D(7,2,3,4)            -67.6234         estimate D2E/DX2                !
 ! D23   D(7,2,3,6)             53.769          estimate D2E/DX2                !
 ! D24   D(7,2,3,14)           172.2453         estimate D2E/DX2                !
 ! D25   D(8,2,3,4)            175.0504         estimate D2E/DX2                !
 ! D26   D(8,2,3,6)            -63.5572         estimate D2E/DX2                !
 ! D27   D(8,2,3,14)            54.9191         estimate D2E/DX2                !
 ! D28   D(2,3,4,11)            66.6354         estimate D2E/DX2                !
 ! D29   D(2,3,4,12)          -176.5394         estimate D2E/DX2                !
 ! D30   D(2,3,4,23)           -56.5817         estimate D2E/DX2                !
 ! D31   D(6,3,4,11)           -55.6968         estimate D2E/DX2                !
 ! D32   D(6,3,4,12)            61.1284         estimate D2E/DX2                !
 ! D33   D(6,3,4,23)          -178.9138         estimate D2E/DX2                !
 ! D34   D(14,3,4,11)         -172.7091         estimate D2E/DX2                !
 ! D35   D(14,3,4,12)          -55.8839         estimate D2E/DX2                !
 ! D36   D(14,3,4,23)           64.0739         estimate D2E/DX2                !
 ! D37   D(3,4,23,5)            59.2856         estimate D2E/DX2                !
 ! D38   D(3,4,23,19)         -174.1255         estimate D2E/DX2                !
 ! D39   D(11,4,23,5)          -63.071          estimate D2E/DX2                !
 ! D40   D(11,4,23,19)          63.5179         estimate D2E/DX2                !
 ! D41   D(12,4,23,5)         -179.4653         estimate D2E/DX2                !
 ! D42   D(12,4,23,19)         -52.8764         estimate D2E/DX2                !
 ! D43   D(1,5,15,16)           50.0239         estimate D2E/DX2                !
 ! D44   D(1,5,15,17)          169.4686         estimate D2E/DX2                !
 ! D45   D(1,5,15,18)          -69.0649         estimate D2E/DX2                !
 ! D46   D(13,5,15,16)         -67.2688         estimate D2E/DX2                !
 ! D47   D(13,5,15,17)          52.1759         estimate D2E/DX2                !
 ! D48   D(13,5,15,18)         173.6425         estimate D2E/DX2                !
 ! D49   D(23,5,15,16)         172.4905         estimate D2E/DX2                !
 ! D50   D(23,5,15,17)         -68.0648         estimate D2E/DX2                !
 ! D51   D(23,5,15,18)          53.4017         estimate D2E/DX2                !
 ! D52   D(1,5,23,4)           -56.9961         estimate D2E/DX2                !
 ! D53   D(1,5,23,19)          178.2557         estimate D2E/DX2                !
 ! D54   D(13,5,23,4)           61.1022         estimate D2E/DX2                !
 ! D55   D(13,5,23,19)         -63.6459         estimate D2E/DX2                !
 ! D56   D(15,5,23,4)         -179.3353         estimate D2E/DX2                !
 ! D57   D(15,5,23,19)          55.9165         estimate D2E/DX2                !
 ! D58   D(20,19,23,4)         170.5195         estimate D2E/DX2                !
 ! D59   D(20,19,23,5)         -63.6648         estimate D2E/DX2                !
 ! D60   D(21,19,23,4)         -67.6817         estimate D2E/DX2                !
 ! D61   D(21,19,23,5)          58.134          estimate D2E/DX2                !
 ! D62   D(22,19,23,4)          52.1277         estimate D2E/DX2                !
 ! D63   D(22,19,23,5)         177.9434         Scan                            !
 --------------------------------------------------------------------------------
 Trust Radius=3.00D-01 FncErr=1.00D-07 GrdErr=1.00D-06
 Number of optimizations in scan=  19
 Number of steps in this run=    138 maximum allowed number of steps=    138.
 GradGradGradGradGradGradGradGradGradGradGradGradGradGradGradGradGradGrad

                          Input orientation:                          
 ---------------------------------------------------------------------
 Center     Atomic      Atomic             Coordinates (Angstroms)
 Number     Number       Type             X           Y           Z
 ---------------------------------------------------------------------
      1          6           0        0.641391   -1.453257   -0.118969
      2          6           0        1.936270   -0.728158    0.245013
      3          6           0        1.908845    0.695903   -0.307759
      4          6           0        0.635729    1.410846    0.130589
      5          6           0       -0.613480   -0.672448    0.297680
      6          1           0        2.779508    1.264396    0.032257
      7          1           0        2.041224   -0.692742    1.336056
      8          1           0        2.802173   -1.277657   -0.135231
      9          1           0        0.601034   -1.613225   -1.202274
     10          1           0        0.611325   -2.439870    0.352563
     11          1           0        0.658649    1.556597    1.229131
     12          1           0        0.592865    2.406556   -0.317923
     13          1           0       -0.618201   -0.602855    1.405038
     14          1           0        1.943412    0.670208   -1.401656
     15          6           0       -1.865577   -1.438713   -0.132877
     16          1           0       -1.791489   -2.476864    0.198316
     17          1           0       -2.780496   -1.027041    0.294054
     18          1           0       -1.959762   -1.433503   -1.221973
     19          6           0       -1.754009    1.478399    0.047164
     20          1           0       -2.649474    1.039705   -0.390094
     21          1           0       -1.916576    1.586414    1.135523
     22          1           0       -1.637894    2.478511   -0.374185
     23          7           0       -0.573045    0.686562   -0.272092
 ---------------------------------------------------------------------
                    Distance matrix (angstroms):
                    1          2          3          4          5
     1  C    0.000000
     2  C    1.528059   0.000000
     3  C    2.502193   1.527828   0.000000
     4  C    2.874960   2.505960   1.524505   0.000000
     5  C    1.535565   2.550902   2.932757   2.434863   0.000000
     6  H    3.461221   2.174071   1.094006   2.151024   3.915888
     7  H    2.157548   1.096651   2.155919   2.802436   2.850630
     8  H    2.167966   1.093765   2.173187   3.462974   3.495765
     9  H    1.095796   2.158898   2.800464   3.304956   2.147084
    10  H    1.093916   2.167257   3.457261   3.857186   2.151032
    11  H    3.298013   2.796589   2.160050   1.108406   2.730303
    12  H    3.865242   3.456597   2.158296   1.092904   3.363703
    13  H    2.152290   2.808324   3.317591   2.692871   1.109553
    14  H    2.801722   2.160323   1.094745   2.146242   3.350845
    15  C    2.507049   3.886094   4.339750   3.800781   1.529800
    16  H    2.658448   4.117808   4.900514   4.583695   2.157196
    17  H    3.472975   4.726480   5.031961   4.200072   2.195839
    18  H    2.825421   4.222396   4.509576   4.081215   2.168185
    19  C    3.789479   4.304207   3.762283   2.392148   2.447388
    20  H    4.137410   4.955578   4.572007   3.346852   2.747685
    21  H    4.166119   4.581995   4.184485   2.748632   2.739069
    22  H    4.551821   4.841568   3.970071   2.562043   3.380735
    23  N    2.465183   2.926686   2.482164   1.465563   1.474172
                    6          7          8          9         10
     6  H    0.000000
     7  H    2.464821   0.000000
     8  H    2.547665   1.756660   0.000000
     9  H    3.814514   3.060156   2.469048   0.000000
    10  H    4.304091   2.462585   2.527548   1.760956   0.000000
    11  H    2.452740   2.642437   3.806465   3.995350   4.091743
    12  H    2.491699   3.799873   4.299749   4.115918   4.892621
    13  H    4.112856   2.661838   3.811397   3.050485   2.448277
    14  H    1.763015   3.059782   2.476990   2.656275   3.811079
    15  C    5.376884   4.239968   4.670528   2.694111   2.715329
    16  H    5.909198   4.378040   4.759315   2.903737   2.408044
    17  H    6.019374   4.944341   5.604756   3.743976   3.674773
    18  H    5.595751   4.806259   4.886852   2.567170   3.178431
    19  C    4.538590   4.558387   5.328030   4.082335   4.587037
    20  H    5.450019   5.289954   5.929214   4.273579   4.826157
    21  H    4.834676   4.571537   5.664301   4.694821   4.818119
    22  H    4.599208   5.149532   5.820661   4.737176   5.456887
    23  N    3.415572   3.364970   3.907555   2.744580   3.401103
                   11         12         13         14         15
    11  H    0.000000
    12  H    1.766390   0.000000
    13  H    2.514860   3.673123   0.000000
    14  H    3.058977   2.452215   4.007503   0.000000
    15  C    4.147127   4.567743   2.149369   4.534947   0.000000
    16  H    4.830586   5.458886   2.518867   5.139402   1.092216
    17  H    4.401962   4.852182   2.467740   5.298244   1.090331
    18  H    4.669549   4.698858   3.064466   4.437641   1.093173
    19  C    2.687765   2.550016   2.732307   4.052552   2.924791
    20  H    3.719240   3.519411   3.169633   4.717456   2.612128
    21  H    2.577098   3.013707   2.559554   4.709163   3.280676
    22  H    2.948670   2.232628   3.701381   4.141426   3.931248
    23  N    2.127840   2.078419   2.115987   2.758394   2.491348
                   16         17         18         19         20
    16  H    0.000000
    17  H    1.757637   0.000000
    18  H    1.770350   1.771201   0.000000
    19  C    3.958328   2.718797   3.183114   0.000000
    20  H    3.667236   2.180978   2.698978   1.088809   0.000000
    21  H    4.171838   2.878294   3.831390   1.105722   1.778634
    22  H    4.990700   3.747129   4.015744   1.091440   1.758895
    23  N    3.422448   2.851280   2.705538   1.457260   2.109548
                   21         22         23
    21  H    0.000000
    22  H    1.775590   0.000000
    23  N    2.143872   2.086961   0.000000
 Stoichiometry    C7H15N
 Framework group  C1[X(C7H15N)]
 Deg. of freedom    63
 Full point group                 C1      NOp   1
 Largest Abelian subgroup         C1      NOp   1
 Largest concise Abelian subgroup C1      NOp   1
                         Standard orientation:                         
 ---------------------------------------------------------------------
 Center     Atomic      Atomic             Coordinates (Angstroms)
 Number     Number       Type             X           Y           Z
 ---------------------------------------------------------------------
      1          6           0       -0.641391    1.453257   -0.118969
      2          6           0       -1.936270    0.728158    0.245013
      3          6           0       -1.908845   -0.695903   -0.307759
      4          6           0       -0.635729   -1.410846    0.130589
      5          6           0        0.613480    0.672448    0.297680
      6          1           0       -2.779508   -1.264396    0.032257
      7          1           0       -2.041224    0.692742    1.336056
      8          1           0       -2.802173    1.277657   -0.135231
      9          1           0       -0.601034    1.613225   -1.202274
     10          1           0       -0.611325    2.439870    0.352563
     11          1           0       -0.658649   -1.556597    1.229131
     12          1           0       -0.592865   -2.406556   -0.317923
     13          1           0        0.618201    0.602855    1.405038
     14          1           0       -1.943412   -0.670208   -1.401656
     15          6           0        1.865577    1.438713   -0.132877
     16          1           0        1.791489    2.476864    0.198316
     17          1           0        2.780496    1.027041    0.294054
     18          1           0        1.959762    1.433503   -1.221973
     19          6           0        1.754009   -1.478399    0.047164
     20          1           0        2.649474   -1.039705   -0.390094
     21          1           0        1.916576   -1.586414    1.135523
     22          1           0        1.637894   -2.478511   -0.374185
     23          7           0        0.573045   -0.686562   -0.272092
 ---------------------------------------------------------------------
 Rotational constants (GHZ):      2.7788296      1.9660022      1.2466788
 Standard basis: 6-311+G(2d,p) (5D, 7F)
 There are   306 symmetry adapted basis functions of A   symmetry.
 Integral buffers will be    131072 words long.
 Raffenetti 2 integral format.
 Two-electron integral symmetry is turned on.
   306 basis functions,   456 primitive gaussians,   322 cartesian basis functions
    32 alpha electrons       32 beta electrons
       nuclear repulsion energy       418.0921190975 Hartrees.
 NAtoms=   23 NActive=   23 NUniq=   23 SFac= 1.00D+00 NAtFMM=   60 NAOKFM=F Big=F
 One-electron integrals computed using PRISM.
 NBasis=   306 RedAO= T  NBF=   306
 NBsUse=   306 1.00D-06 NBFU=   306
 Harris functional with IExCor=  402 diagonalized for initial guess.
 ExpMin= 4.38D-02 ExpMax= 6.29D+03 ExpMxC= 9.49D+02 IAcc=2 IRadAn=         4 AccDes= 0.00D+00
 HarFok:  IExCor=  402 AccDes= 0.00D+00 IRadAn=         4 IDoV= 1
 ScaDFX=  1.000000  1.000000  1.000000  1.000000
 FoFCou: FMM=F IPFlag=           0 FMFlag=      100000 FMFlg1=           0
         NFxFlg=           0 DoJE=T BraDBF=F KetDBF=T FulRan=T
         Omega=  0.000000  0.000000  1.000000  0.000000  0.000000 ICntrl=     500 IOpCl=  0
         NMat0=    1 NMatS0=    1 NMatT0=    0 NMatD0=    1 NMtDS0=    0 NMtDT0=    0
         I1Cent=           4 NGrid=           0.
 Petite list used in FoFCou.
 Initial guess orbital symmetries:
       Occupied  (A) (A) (A) (A) (A) (A) (A) (A) (A) (A) (A) (A)
                 (A) (A) (A) (A) (A) (A) (A) (A) (A) (A) (A) (A)
                 (A) (A) (A) (A) (A) (A) (A) (A)
       Virtual   (A) (A) (A) (A) (A) (A) (A) (A) (A) (A) (A) (A)
                 (A) (A) (A) (A) (A) (A) (A) (A) (A) (A) (A) (A)
                 (A) (A) (A) (A) (A) (A) (A) (A) (A) (A) (A) (A)
                 (A) (A) (A) (A) (A) (A) (A) (A) (A) (A) (A) (A)
                 (A) (A) (A) (A) (A) (A) (A) (A) (A) (A) (A) (A)
                 (A) (A) (A) (A) (A) (A) (A) (A) (A) (A) (A) (A)
                 (A) (A) (A) (A) (A) (A) (A) (A) (A) (A) (A) (A)
                 (A) (A) (A) (A) (A) (A) (A) (A) (A) (A) (A) (A)
                 (A) (A) (A) (A) (A) (A) (A) (A) (A) (A) (A) (A)
                 (A) (A) (A) (A) (A) (A) (A) (A) (A) (A) (A) (A)
                 (A) (A) (A) (A) (A) (A) (A) (A) (A) (A) (A) (A)
                 (A) (A) (A) (A) (A) (A) (A) (A) (A) (A) (A) (A)
                 (A) (A) (A) (A) (A) (A) (A) (A) (A) (A) (A) (A)
                 (A) (A) (A) (A) (A) (A) (A) (A) (A) (A) (A) (A)
                 (A) (A) (A) (A) (A) (A) (A) (A) (A) (A) (A) (A)
                 (A) (A) (A) (A) (A) (A) (A) (A) (A) (A) (A) (A)
                 (A) (A) (A) (A) (A) (A) (A) (A) (A) (A) (A) (A)
                 (A) (A) (A) (A) (A) (A) (A) (A) (A) (A) (A) (A)
                 (A) (A) (A) (A) (A) (A) (A) (A) (A) (A) (A) (A)
                 (A) (A) (A) (A) (A) (A) (A) (A) (A) (A) (A) (A)
                 (A) (A) (A) (A) (A) (A) (A) (A) (A) (A) (A) (A)
                 (A) (A) (A) (A) (A) (A) (A) (A) (A) (A) (A) (A)
                 (A) (A) (A) (A) (A) (A) (A) (A) (A) (A)
 The electronic state of the initial guess is 1-A.
 Requested convergence on RMS density matrix=1.00D-08 within 128 cycles.
 Requested convergence on MAX density matrix=1.00D-06.
 Requested convergence on             energy=1.00D-06.
 No special actions if energy rises.
 Keep R1 ints in memory in canonical form, NReq=1369569276.
 SCF Done:  E(RB3LYP) =  -330.628192580     A.U. after   12 cycles
             Convg  =    0.3678D-08             -V/T =  2.0048

 **********************************************************************

            Population analysis using the SCF density.

 **********************************************************************

 Orbital symmetries:
       Occupied  (A) (A) (A) (A) (A) (A) (A) (A) (A) (A) (A) (A)
                 (A) (A) (A) (A) (A) (A) (A) (A) (A) (A) (A) (A)
                 (A) (A) (A) (A) (A) (A) (A) (A)
       Virtual   (A) (A) (A) (A) (A) (A) (A) (A) (A) (A) (A) (A)
                 (A) (A) (A) (A) (A) (A) (A) (A) (A) (A) (A) (A)
                 (A) (A) (A) (A) (A) (A) (A) (A) (A) (A) (A) (A)
                 (A) (A) (A) (A) (A) (A) (A) (A) (A) (A) (A) (A)
                 (A) (A) (A) (A) (A) (A) (A) (A) (A) (A) (A) (A)
                 (A) (A) (A) (A) (A) (A) (A) (A) (A) (A) (A) (A)
                 (A) (A) (A) (A) (A) (A) (A) (A) (A) (A) (A) (A)
                 (A) (A) (A) (A) (A) (A) (A) (A) (A) (A) (A) (A)
                 (A) (A) (A) (A) (A) (A) (A) (A) (A) (A) (A) (A)
                 (A) (A) (A) (A) (A) (A) (A) (A) (A) (A) (A) (A)
                 (A) (A) (A) (A) (A) (A) (A) (A) (A) (A) (A) (A)
                 (A) (A) (A) (A) (A) (A) (A) (A) (A) (A) (A) (A)
                 (A) (A) (A) (A) (A) (A) (A) (A) (A) (A) (A) (A)
                 (A) (A) (A) (A) (A) (A) (A) (A) (A) (A) (A) (A)
                 (A) (A) (A) (A) (A) (A) (A) (A) (A) (A) (A) (A)
                 (A) (A) (A) (A) (A) (A) (A) (A) (A) (A) (A) (A)
                 (A) (A) (A) (A) (A) (A) (A) (A) (A) (A) (A) (A)
                 (A) (A) (A) (A) (A) (A) (A) (A) (A) (A) (A) (A)
                 (A) (A) (A) (A) (A) (A) (A) (A) (A) (A) (A) (A)
                 (A) (A) (A) (A) (A) (A) (A) (A) (A) (A) (A) (A)
                 (A) (A) (A) (A) (A) (A) (A) (A) (A) (A) (A) (A)
                 (A) (A) (A) (A) (A) (A) (A) (A) (A) (A) (A) (A)
                 (A) (A) (A) (A) (A) (A) (A) (A) (A) (A)
 The electronic state is 1-A.
 Alpha  occ. eigenvalues --  -14.30144 -10.19587 -10.18663 -10.18143 -10.16181
 Alpha  occ. eigenvalues --  -10.16079 -10.16011 -10.15581  -0.92552  -0.79752
 Alpha  occ. eigenvalues --   -0.77372  -0.69972  -0.67770  -0.62074  -0.59157
 Alpha  occ. eigenvalues --   -0.54966  -0.48370  -0.47088  -0.45096  -0.44709
 Alpha  occ. eigenvalues --   -0.43739  -0.40760  -0.39268  -0.38744  -0.37569
 Alpha  occ. eigenvalues --   -0.37057  -0.36026  -0.33861  -0.32723  -0.31461
 Alpha  occ. eigenvalues --   -0.30755  -0.21809
 Alpha virt. eigenvalues --    0.00626   0.01347   0.01846   0.02105   0.04056
 Alpha virt. eigenvalues --    0.04280   0.04950   0.05377   0.05779   0.07078
 Alpha virt. eigenvalues --    0.07418   0.07985   0.08203   0.09004   0.09145
 Alpha virt. eigenvalues --    0.09465   0.11441   0.11893   0.13044   0.13177
 Alpha virt. eigenvalues --    0.13506   0.13745   0.14592   0.15440   0.16221
 Alpha virt. eigenvalues --    0.16532   0.17282   0.18367   0.18738   0.19448
 Alpha virt. eigenvalues --    0.19593   0.20655   0.21127   0.21735   0.21892
 Alpha virt. eigenvalues --    0.22780   0.23558   0.24111   0.24247   0.25139
 Alpha virt. eigenvalues --    0.25920   0.27323   0.27835   0.28001   0.28289
 Alpha virt. eigenvalues --    0.28860   0.29190   0.29328   0.29969   0.30792
 Alpha virt. eigenvalues --    0.31084   0.32641   0.33194   0.34515   0.38554
 Alpha virt. eigenvalues --    0.40521   0.41667   0.42463   0.43087   0.44910
 Alpha virt. eigenvalues --    0.46464   0.47848   0.49147   0.51973   0.52756
 Alpha virt. eigenvalues --    0.53987   0.54936   0.55227   0.56542   0.56810
 Alpha virt. eigenvalues --    0.57096   0.59358   0.59636   0.61110   0.62019
 Alpha virt. eigenvalues --    0.62566   0.64242   0.65825   0.65995   0.66732
 Alpha virt. eigenvalues --    0.67140   0.67896   0.68533   0.69704   0.70207
 Alpha virt. eigenvalues --    0.71260   0.72439   0.73437   0.73746   0.74769
 Alpha virt. eigenvalues --    0.75170   0.76493   0.77550   0.78728   0.79660
 Alpha virt. eigenvalues --    0.83518   0.86443   0.86947   0.90233   0.91006
 Alpha virt. eigenvalues --    0.91905   0.93701   0.95248   0.97253   0.99915
 Alpha virt. eigenvalues --    1.01617   1.02978   1.04839   1.06219   1.08616
 Alpha virt. eigenvalues --    1.10639   1.13486   1.14899   1.16676   1.17461
 Alpha virt. eigenvalues --    1.20930   1.22340   1.23768   1.24456   1.25756
 Alpha virt. eigenvalues --    1.27489   1.28153   1.29909   1.31401   1.33605
 Alpha virt. eigenvalues --    1.34074   1.36018   1.37161   1.37707   1.39926
 Alpha virt. eigenvalues --    1.41209   1.41711   1.43530   1.46658   1.47483
 Alpha virt. eigenvalues --    1.51191   1.52768   1.54678   1.56249   1.65892
 Alpha virt. eigenvalues --    1.67083   1.69914   1.75786   1.76607   1.80110
 Alpha virt. eigenvalues --    1.80806   1.81813   1.83685   1.87544   1.88098
 Alpha virt. eigenvalues --    1.89561   1.90322   1.94643   1.95596   1.99284
 Alpha virt. eigenvalues --    2.00639   2.01868   2.04683   2.09407   2.12539
 Alpha virt. eigenvalues --    2.16338   2.17622   2.19868   2.20948   2.23733
 Alpha virt. eigenvalues --    2.26123   2.28317   2.29058   2.30455   2.31710
 Alpha virt. eigenvalues --    2.33034   2.33494   2.35214   2.36460   2.37630
 Alpha virt. eigenvalues --    2.38756   2.40575   2.42593   2.42939   2.43669
 Alpha virt. eigenvalues --    2.48039   2.50344   2.51939   2.53726   2.56187
 Alpha virt. eigenvalues --    2.58873   2.63151   2.67427   2.72835   2.73901
 Alpha virt. eigenvalues --    2.75244   2.75408   2.77037   2.81181   2.84942
 Alpha virt. eigenvalues --    2.85567   2.87384   2.88016   2.88338   2.91485
 Alpha virt. eigenvalues --    2.94953   2.96440   3.03273   3.08650   3.15008
 Alpha virt. eigenvalues --    3.18523   3.21923   3.25643   3.29518   3.30069
 Alpha virt. eigenvalues --    3.33467   3.34446   3.35538   3.37694   3.39885
 Alpha virt. eigenvalues --    3.42697   3.44251   3.46078   3.46569   3.48245
 Alpha virt. eigenvalues --    3.50553   3.52277   3.53834   3.54771   3.56731
 Alpha virt. eigenvalues --    3.57251   3.59978   3.61878   3.63015   3.64941
 Alpha virt. eigenvalues --    3.65611   3.66980   3.68804   3.71073   3.72864
 Alpha virt. eigenvalues --    3.75911   3.76927   3.79714   3.81727   3.83408
 Alpha virt. eigenvalues --    3.86888   3.97055   4.00400   4.02151   4.09298
 Alpha virt. eigenvalues --    4.20479   4.22810   4.23919   4.25834   4.26650
 Alpha virt. eigenvalues --    4.27144   4.29367   4.31076   4.31150   4.39929
 Alpha virt. eigenvalues --    4.46430   4.49847   4.55277   4.57981   5.01917
 Alpha virt. eigenvalues --    5.04763   5.30564   5.33226   5.37907   5.57622
 Alpha virt. eigenvalues --    5.62964  23.85992  23.93176  23.97336  24.00990
 Alpha virt. eigenvalues --   24.03033  24.08625  24.16385  35.60941
          Condensed to atoms (all electrons):
              1          2          3          4          5          6
     1  C    5.440023  -0.014586  -0.003993  -0.002937   0.122246   0.019337
     2  C   -0.014586   5.493142   0.053813   0.023807   0.124222  -0.035591
     3  C   -0.003993   0.053813   5.419229   0.127521   0.075662   0.398368
     4  C   -0.002937   0.023807   0.127521   5.237941  -0.283934  -0.024461
     5  C    0.122246   0.124222   0.075662  -0.283934   5.448939  -0.007292
     6  H    0.019337  -0.035591   0.398368  -0.024461  -0.007292   0.607391
     7  H   -0.076364   0.446669  -0.047141  -0.007568   0.021674  -0.008225
     8  H   -0.032274   0.417042  -0.042679   0.015964   0.000994  -0.003977
     9  H    0.467993  -0.059464  -0.000516   0.003447  -0.084344  -0.000078
    10  H    0.401458  -0.017941   0.019822  -0.008902  -0.041836  -0.000435
    11  H    0.021720  -0.023449  -0.093276   0.459105  -0.044637  -0.004578
    12  H   -0.013466   0.027523  -0.007353   0.382501   0.030435  -0.004822
    13  H   -0.036958  -0.041123   0.007748   0.012321   0.318210   0.000070
    14  H    0.001172  -0.076523   0.485155  -0.077358   0.003688  -0.041150
    15  C    0.051583  -0.123419   0.006759  -0.039855   0.108365  -0.000165
    16  H   -0.012965   0.001126   0.001861  -0.001560  -0.046044  -0.000002
    17  H    0.014512   0.002547  -0.000555   0.000772  -0.020325  -0.000004
    18  H   -0.010880  -0.007676  -0.001320   0.002820  -0.083060  -0.000001
    19  C   -0.028802   0.003742  -0.043090  -0.061212  -0.091124  -0.001571
    20  H   -0.008500   0.003083   0.001407   0.002472   0.038298   0.000017
    21  H    0.007512  -0.008455  -0.002310  -0.006329  -0.049114   0.000079
    22  H    0.000516   0.000842   0.002925   0.000565   0.010908  -0.000083
    23  N   -0.027015  -0.029655  -0.043591   0.306013   0.264694   0.005259
              7          8          9         10         11         12
     1  C   -0.076364  -0.032274   0.467993   0.401458   0.021720  -0.013466
     2  C    0.446669   0.417042  -0.059464  -0.017941  -0.023449   0.027523
     3  C   -0.047141  -0.042679  -0.000516   0.019822  -0.093276  -0.007353
     4  C   -0.007568   0.015964   0.003447  -0.008902   0.459105   0.382501
     5  C    0.021674   0.000994  -0.084344  -0.041836  -0.044637   0.030435
     6  H   -0.008225  -0.003977  -0.000078  -0.000435  -0.004578  -0.004822
     7  H    0.597161  -0.039775   0.007811  -0.008172   0.001137  -0.000158
     8  H   -0.039775   0.605335  -0.007221  -0.004644  -0.000272  -0.000384
     9  H    0.007811  -0.007221   0.587644  -0.041132  -0.000120  -0.000084
    10  H   -0.008172  -0.004644  -0.041132   0.607164   0.000171   0.000123
    11  H    0.001137  -0.000272  -0.000120   0.000171   0.637661  -0.047449
    12  H   -0.000158  -0.000384  -0.000084   0.000123  -0.047449   0.616801
    13  H    0.001251  -0.000212   0.008878  -0.004567   0.014237  -0.000722
    14  H    0.007864  -0.006775   0.000639  -0.000061   0.008312  -0.007435
    15  C    0.003902  -0.002119   0.004879  -0.013575   0.015126  -0.004934
    16  H    0.000043  -0.000044  -0.000085   0.003370   0.000025   0.000027
    17  H    0.000000   0.000018  -0.000151  -0.000136  -0.000022  -0.000007
    18  H   -0.000003   0.000018   0.003890   0.000388   0.000080  -0.000024
    19  C    0.000872  -0.000281   0.002076  -0.000826   0.020118  -0.019823
    20  H    0.000002  -0.000005  -0.000018  -0.000045  -0.001288   0.000780
    21  H   -0.000044  -0.000005   0.000050   0.000090   0.015979  -0.001897
    22  H    0.000005  -0.000004  -0.000014   0.000020  -0.002469   0.007838
    23  N   -0.006088  -0.001566  -0.003093   0.007613  -0.063945  -0.055269
             13         14         15         16         17         18
     1  C   -0.036958   0.001172   0.051583  -0.012965   0.014512  -0.010880
     2  C   -0.041123  -0.076523  -0.123419   0.001126   0.002547  -0.007676
     3  C    0.007748   0.485155   0.006759   0.001861  -0.000555  -0.001320
     4  C    0.012321  -0.077358  -0.039855  -0.001560   0.000772   0.002820
     5  C    0.318210   0.003688   0.108365  -0.046044  -0.020325  -0.083060
     6  H    0.000070  -0.041150  -0.000165  -0.000002  -0.000004  -0.000001
     7  H    0.001251   0.007864   0.003902   0.000043   0.000000  -0.000003
     8  H   -0.000212  -0.006775  -0.002119  -0.000044   0.000018   0.000018
     9  H    0.008878   0.000639   0.004879  -0.000085  -0.000151   0.003890
    10  H   -0.004567  -0.000061  -0.013575   0.003370  -0.000136   0.000388
    11  H    0.014237   0.008312   0.015126   0.000025  -0.000022   0.000080
    12  H   -0.000722  -0.007435  -0.004934   0.000027  -0.000007  -0.000024
    13  H    0.676269  -0.000225   0.008685  -0.003377  -0.007898   0.008722
    14  H   -0.000225   0.587798   0.004986   0.000007   0.000008  -0.000038
    15  C    0.008685   0.004986   5.406958   0.413408   0.386707   0.467913
    16  H   -0.003377   0.000007   0.413408   0.570415  -0.027697  -0.028417
    17  H   -0.007898   0.000008   0.386707  -0.027697   0.577856  -0.032752
    18  H    0.008722  -0.000038   0.467913  -0.028417  -0.032752   0.541091
    19  C    0.021356   0.002156  -0.049939   0.003132  -0.004470  -0.001104
    20  H   -0.003005  -0.000016  -0.018535   0.000403  -0.003127  -0.000408
    21  H    0.016784   0.000016   0.019242  -0.000088  -0.000067   0.000611
    22  H   -0.000825   0.000026   0.000615  -0.000008   0.000338  -0.000220
    23  N   -0.055461  -0.001905  -0.054841   0.009559  -0.004880   0.003643
             19         20         21         22         23
     1  C   -0.028802  -0.008500   0.007512   0.000516  -0.027015
     2  C    0.003742   0.003083  -0.008455   0.000842  -0.029655
     3  C   -0.043090   0.001407  -0.002310   0.002925  -0.043591
     4  C   -0.061212   0.002472  -0.006329   0.000565   0.306013
     5  C   -0.091124   0.038298  -0.049114   0.010908   0.264694
     6  H   -0.001571   0.000017   0.000079  -0.000083   0.005259
     7  H    0.000872   0.000002  -0.000044   0.000005  -0.006088
     8  H   -0.000281  -0.000005  -0.000005  -0.000004  -0.001566
     9  H    0.002076  -0.000018   0.000050  -0.000014  -0.003093
    10  H   -0.000826  -0.000045   0.000090   0.000020   0.007613
    11  H    0.020118  -0.001288   0.015979  -0.002469  -0.063945
    12  H   -0.019823   0.000780  -0.001897   0.007838  -0.055269
    13  H    0.021356  -0.003005   0.016784  -0.000825  -0.055461
    14  H    0.002156  -0.000016   0.000016   0.000026  -0.001905
    15  C   -0.049939  -0.018535   0.019242   0.000615  -0.054841
    16  H    0.003132   0.000403  -0.000088  -0.000008   0.009559
    17  H   -0.004470  -0.003127  -0.000067   0.000338  -0.004880
    18  H   -0.001104  -0.000408   0.000611  -0.000220   0.003643
    19  C    4.954336   0.416533   0.430951   0.406894   0.297823
    20  H    0.416533   0.579892  -0.047731  -0.022354  -0.054397
    21  H    0.430951  -0.047731   0.613050  -0.039433  -0.053782
    22  H    0.406894  -0.022354  -0.039433   0.581991  -0.057025
    23  N    0.297823  -0.054397  -0.053782  -0.057025   6.716669
 Mulliken atomic charges:
              1
     1  C   -0.279332
     2  C   -0.159676
     3  C   -0.314447
     4  C   -0.061133
     5  C    0.183374
     6  H    0.101913
     7  H    0.105146
     8  H    0.102866
     9  H    0.109010
    10  H    0.102051
    11  H    0.087833
    12  H    0.097797
    13  H    0.059841
    14  H    0.109659
    15  C   -0.591749
    16  H    0.116911
    17  H    0.119333
    18  H    0.136728
    19  C   -0.257749
    20  H    0.116543
    21  H    0.104890
    22  H    0.108951
    23  N   -0.098760
 Sum of Mulliken atomic charges =   0.00000
 Mulliken charges with hydrogens summed into heavy atoms:
              1
     1  C   -0.068271
     2  C    0.048336
     3  C   -0.102875
     4  C    0.124496
     5  C    0.243215
    15  C   -0.218777
    19  C    0.072634
    23  N   -0.098760
 Sum of Mulliken charges with hydrogens summed into heavy atoms =   0.00000
 Electronic spatial extent (au):  <R**2>=           1059.9654
 Charge=              0.0000 electrons
 Dipole moment (field-independent basis, Debye):
    X=             -0.0959    Y=              0.0127    Z=              0.4870  Tot=              0.4965
 Quadrupole moment (field-independent basis, Debye-Ang):
   XX=            -52.2464   YY=            -52.0434   ZZ=            -54.9580
   XY=             -0.0497   XZ=              0.3328   YZ=              0.0783
 Traceless Quadrupole moment (field-independent basis, Debye-Ang):
   XX=              0.8362   YY=              1.0392   ZZ=             -1.8754
   XY=             -0.0497   XZ=              0.3328   YZ=              0.0783
 Octapole moment (field-independent basis, Debye-Ang**2):
  XXX=              2.2420  YYY=             -3.5821  ZZZ=             -1.2621  XYY=              0.0185
  XXY=             -1.9679  XXZ=             -1.3987  XZZ=             -1.1024  YZZ=              1.1351
  YYZ=             -1.4284  XYZ=              0.5707
 Hexadecapole moment (field-independent basis, Debye-Ang**3):
 XXXX=           -792.0396 YYYY=           -563.3881 ZZZZ=           -135.7115 XXXY=             -3.9747
 XXXZ=             -1.6111 YYYX=             -1.9669 YYYZ=             11.2810 ZZZX=             -0.2983
 ZZZY=             -0.8058 XXYY=           -230.6204 XXZZ=           -156.7905 YYZZ=           -120.3191
 XXYZ=             -0.3660 YYXZ=             -0.5734 ZZXY=              0.3444
 N-N= 4.180921190975D+02 E-N=-1.602554497148D+03  KE= 3.290438170427D+02
 Calling FoFJK, ICntrl=      2127 FMM=F ISym2X=0 I1Cent= 0 IOpClX= 0 NMat=1 NMatS=1 NMatT=0.
 ***** Axes restored to original set *****
 -------------------------------------------------------------------
 Center     Atomic                   Forces (Hartrees/Bohr)
 Number     Number              X              Y              Z
 -------------------------------------------------------------------
      1        6           0.000019771    0.000016350   -0.000038999
      2        6          -0.000002384   -0.000183208    0.000045950
      3        6          -0.000027351    0.000150217   -0.000014999
      4        6          -0.000017640   -0.000216909    0.000058547
      5        6          -0.000201741   -0.000035818    0.000025776
      6        1           0.000003576    0.000005881    0.000002416
      7        1           0.000005477    0.000013887    0.000004787
      8        1          -0.000000682    0.000001769   -0.000006428
      9        1          -0.000004114   -0.000006521   -0.000017336
     10        1          -0.000003923   -0.000014481    0.000003245
     11        1          -0.000009352    0.000035723   -0.000014824
     12        1           0.000019443    0.000008157    0.000006780
     13        1           0.000027644    0.000045814   -0.000027753
     14        1          -0.000011096   -0.000007049    0.000005573
     15        6           0.000021216   -0.000013720   -0.000004301
     16        1           0.000007774    0.000004023    0.000000258
     17        1          -0.000041859    0.000046562    0.000001193
     18        1          -0.000009723   -0.000028236   -0.000018217
     19        6           0.000030262   -0.000013263    0.000005465
     20        1           0.000034302   -0.000025086    0.000007652
     21        1           0.000022697   -0.000019622    0.000021121
     22        1          -0.000027252   -0.000007290   -0.000001476
     23        7           0.000164957    0.000242818   -0.000044427
 -------------------------------------------------------------------
 Cartesian Forces:  Max     0.000242818 RMS     0.000061484

 GradGradGradGradGradGradGradGradGradGradGradGradGradGradGradGradGradGrad
 Berny optimization.
 Internal  Forces:  Max     0.000132318 RMS     0.000031051
 Search for a local minimum.
 Step number   1 out of a maximum of  138 on scan point     1 out of    19
 All quantities printed in internal units (Hartrees-Bohrs-Radians)
 Mixed Optimization -- En-DIIS/RFO-DIIS
 Second derivative matrix not updated -- first step.
 ITU=  0
     Eigenvalues ---    0.00372   0.00586   0.00637   0.01039   0.01766
     Eigenvalues ---    0.02283   0.02807   0.03945   0.03978   0.04370
     Eigenvalues ---    0.04682   0.04792   0.04903   0.05093   0.05371
     Eigenvalues ---    0.05606   0.05701   0.05976   0.06276   0.07028
     Eigenvalues ---    0.07139   0.07921   0.07978   0.08324   0.08980
     Eigenvalues ---    0.09356   0.09869   0.12044   0.13361   0.15482
     Eigenvalues ---    0.16000   0.16000   0.16000   0.16000   0.16000
     Eigenvalues ---    0.16000   0.17137   0.17840   0.20246   0.27670
     Eigenvalues ---    0.28394   0.28761   0.29442   0.29555   0.32647
     Eigenvalues ---    0.32769   0.33057   0.34055   0.34076   0.34151
     Eigenvalues ---    0.34270   0.34354   0.34364   0.34381   0.34448
     Eigenvalues ---    0.34479   0.34558   0.34647   0.34774   0.34951
     Eigenvalues ---    0.35132   0.373091000.000001000.000001000.00000
     Eigenvalues --- 1000.000001000.000001000.000001000.000001000.00000
     Eigenvalues --- 1000.000001000.000001000.000001000.000001000.00000
     Eigenvalues --- 1000.000001000.000001000.000001000.000001000.00000
     Eigenvalues --- 1000.000001000.000001000.000001000.000001000.00000
     Eigenvalues --- 1000.000001000.000001000.000001000.000001000.00000
     Eigenvalues --- 1000.000001000.000001000.000001000.000001000.00000
     Eigenvalues --- 1000.000001000.000001000.000001000.000001000.00000
     Eigenvalues --- 1000.000001000.000001000.000001000.000001000.00000
     Eigenvalues --- 1000.000001000.000001000.000001000.000001000.00000
     Eigenvalues --- 1000.000001000.000001000.000001000.000001000.00000
     Eigenvalues --- 1000.000001000.000001000.000001000.000001000.00000
     Eigenvalues --- 1000.000001000.000001000.000001000.000001000.00000
     Eigenvalues --- 1000.000001000.000001000.000001000.000001000.00000
     Eigenvalues --- 1000.00000
 RFO step:  Lambda=-1.41016589D-06 EMin= 3.71749539D-03
 Linear search not attempted -- first point.
 Iteration  1 RMS(Cart)=  0.00119438 RMS(Int)=  0.00000164
 Iteration  2 RMS(Cart)=  0.00000176 RMS(Int)=  0.00000011
 Iteration  3 RMS(Cart)=  0.00000000 RMS(Int)=  0.00000011
 Iteration  1 RMS(Cart)=  0.00000000 RMS(Int)=  0.00000000
 Variable       Old X    -DE/DX   Delta X   Delta X   Delta X     New X
                                 (Linear)    (Quad)   (Total)
    R1        2.88761   0.00000   0.00000   0.00006   0.00006   2.88767
    R2        2.90180   0.00005   0.00000   0.00019   0.00019   2.90198
    R3        2.07075   0.00001   0.00000   0.00004   0.00004   2.07080
    R4        2.06720   0.00001   0.00000   0.00004   0.00004   2.06724
    R5        2.88718   0.00012   0.00000   0.00042   0.00042   2.88760
    R6        2.07237   0.00001   0.00000   0.00002   0.00002   2.07239
    R7        2.06692   0.00000   0.00000   0.00000   0.00000   2.06691
    R8        2.88090  -0.00006   0.00000  -0.00022  -0.00022   2.88068
    R9        2.06737   0.00001   0.00000   0.00002   0.00002   2.06739
   R10        2.06877   0.00000   0.00000   0.00000   0.00000   2.06876
   R11        2.09458  -0.00001   0.00000  -0.00005  -0.00005   2.09454
   R12        2.06529   0.00001   0.00000   0.00003   0.00003   2.06531
   R13        2.76951  -0.00010   0.00000  -0.00032  -0.00032   2.76919
   R14        2.09675  -0.00002   0.00000  -0.00007  -0.00007   2.09668
   R15        2.89090   0.00001   0.00000   0.00004   0.00004   2.89094
   R16        2.78578   0.00003   0.00000   0.00007   0.00007   2.78585
   R17        2.06399   0.00001   0.00000   0.00002   0.00002   2.06401
   R18        2.06043   0.00005   0.00000   0.00014   0.00014   2.06057
   R19        2.06580   0.00001   0.00000   0.00003   0.00003   2.06583
   R20        2.05755  -0.00001   0.00000  -0.00004  -0.00004   2.05751
   R21        2.08951   0.00001   0.00000   0.00004   0.00004   2.08955
   R22        2.06252  -0.00001   0.00000  -0.00004  -0.00004   2.06248
   R23        2.75382  -0.00007   0.00000  -0.00020  -0.00020   2.75362
    A1        1.96772   0.00000   0.00000   0.00002   0.00002   1.96774
    A2        1.91343   0.00001   0.00000   0.00007   0.00007   1.91350
    A3        1.92686  -0.00001   0.00000  -0.00013  -0.00013   1.92674
    A4        1.88849  -0.00001   0.00000   0.00004   0.00004   1.88853
    A5        1.89567   0.00001   0.00000   0.00000   0.00000   1.89567
    A6        1.86864   0.00000   0.00000  -0.00001  -0.00001   1.86863
    A7        1.91867  -0.00001   0.00000  -0.00005  -0.00005   1.91862
    A8        1.91071   0.00002   0.00000   0.00015   0.00015   1.91086
    A9        1.92800   0.00001   0.00000   0.00013   0.00013   1.92813
   A10        1.90876  -0.00002   0.00000  -0.00025  -0.00025   1.90851
   A11        1.93553   0.00001   0.00000  -0.00004  -0.00004   1.93549
   A12        1.86119   0.00000   0.00000   0.00006   0.00006   1.86125
   A13        1.92631  -0.00002   0.00000  -0.00001  -0.00001   1.92631
   A14        1.93651   0.00001   0.00000   0.00021   0.00021   1.93672
   A15        1.91673   0.00001   0.00000  -0.00008  -0.00008   1.91665
   A16        1.90875   0.00000   0.00000   0.00001   0.00001   1.90876
   A17        1.90148   0.00000   0.00000  -0.00018  -0.00018   1.90129
   A18        1.87300   0.00000   0.00000   0.00004   0.00004   1.87304
   A19        1.90644   0.00001   0.00000   0.00039   0.00039   1.90683
   A20        1.91986  -0.00001   0.00000  -0.00026  -0.00026   1.91959
   A21        1.95844   0.00002   0.00000   0.00000   0.00000   1.95844
   A22        1.86267  -0.00001   0.00000  -0.00024  -0.00024   1.86242
   A23        1.93302   0.00001   0.00000   0.00024   0.00024   1.93326
   A24        1.88089  -0.00002   0.00000  -0.00015  -0.00015   1.88074
   A25        1.88196   0.00003   0.00000  -0.00008  -0.00008   1.88188
   A26        1.91537  -0.00003   0.00000   0.00011   0.00011   1.91548
   A27        1.91928  -0.00002   0.00000  -0.00007  -0.00007   1.91921
   A28        1.88475   0.00000   0.00000   0.00013   0.00013   1.88488
   A29        1.90502  -0.00004   0.00000  -0.00074  -0.00074   1.90427
   A30        1.95566   0.00007   0.00000   0.00063   0.00063   1.95629
   A31        1.91265  -0.00003   0.00000  -0.00027  -0.00027   1.91239
   A32        1.96868  -0.00001   0.00000  -0.00004  -0.00004   1.96865
   A33        1.92680   0.00004   0.00000   0.00028   0.00028   1.92708
   A34        1.87241   0.00002   0.00000   0.00010   0.00010   1.87252
   A35        1.88859  -0.00001   0.00000  -0.00015  -0.00015   1.88845
   A36        1.89231  -0.00001   0.00000   0.00005   0.00005   1.89237
   A37        1.88992   0.00003   0.00000  -0.00003  -0.00003   1.88989
   A38        1.87723   0.00000   0.00000   0.00016   0.00016   1.87739
   A39        1.93862  -0.00007   0.00000  -0.00045  -0.00045   1.93816
   A40        1.88191   0.00001   0.00000   0.00017   0.00017   1.88207
   A41        1.96911  -0.00004   0.00000  -0.00033  -0.00033   1.96878
   A42        1.90405   0.00007   0.00000   0.00052   0.00053   1.90457
   A43        1.95198   0.00002   0.00000  -0.00048  -0.00048   1.95150
   A44        1.91737   0.00008   0.00000   0.00018   0.00018   1.91754
   A45        1.97580  -0.00013   0.00000  -0.00114  -0.00114   1.97466
    D1       -0.92437   0.00002   0.00000   0.00055   0.00055  -0.92381
    D2        1.17273   0.00000   0.00000   0.00031   0.00031   1.17304
    D3       -3.06599   0.00001   0.00000   0.00056   0.00056  -3.06544
    D4        1.18060   0.00002   0.00000   0.00067   0.00067   1.18127
    D5       -3.00549  -0.00001   0.00000   0.00043   0.00043  -3.00506
    D6       -0.96103   0.00001   0.00000   0.00068   0.00068  -0.96035
    D7       -3.04806   0.00001   0.00000   0.00063   0.00063  -3.04743
    D8       -0.95096  -0.00001   0.00000   0.00038   0.00038  -0.95058
    D9        1.09350   0.00001   0.00000   0.00063   0.00063   1.09413
   D10       -1.12034   0.00003   0.00000   0.00117   0.00117  -1.11917
   D11        3.11395   0.00003   0.00000   0.00101   0.00101   3.11496
   D12        0.95506  -0.00003   0.00000   0.00019   0.00019   0.95525
   D13        3.04366   0.00002   0.00000   0.00104   0.00104   3.04470
   D14        0.99477   0.00002   0.00000   0.00087   0.00087   0.99565
   D15       -1.16412  -0.00003   0.00000   0.00006   0.00006  -1.16407
   D16        1.02091   0.00002   0.00000   0.00102   0.00102   1.02194
   D17       -1.02798   0.00002   0.00000   0.00086   0.00086  -1.02711
   D18        3.09632  -0.00003   0.00000   0.00004   0.00004   3.09636
   D19        0.91803  -0.00001   0.00000  -0.00043  -0.00043   0.91760
   D20        3.03672  -0.00001   0.00000  -0.00027  -0.00027   3.03645
   D21       -1.17866   0.00000   0.00000  -0.00014  -0.00014  -1.17880
   D22       -1.18025  -0.00001   0.00000  -0.00043  -0.00043  -1.18068
   D23        0.93845  -0.00001   0.00000  -0.00027  -0.00027   0.93817
   D24        3.00625   0.00000   0.00000  -0.00014  -0.00014   3.00611
   D25        3.05521   0.00000   0.00000  -0.00033  -0.00033   3.05488
   D26       -1.10928   0.00000   0.00000  -0.00017  -0.00017  -1.10945
   D27        0.95852   0.00001   0.00000  -0.00004  -0.00004   0.95848
   D28        1.16301   0.00001   0.00000   0.00012   0.00012   1.16312
   D29       -3.08119  -0.00001   0.00000  -0.00010  -0.00010  -3.08129
   D30       -0.98754  -0.00002   0.00000  -0.00047  -0.00047  -0.98800
   D31       -0.97209   0.00001   0.00000  -0.00015  -0.00015  -0.97224
   D32        1.06689  -0.00001   0.00000  -0.00037  -0.00037   1.06653
   D33       -3.12263  -0.00002   0.00000  -0.00073  -0.00073  -3.12337
   D34       -3.01434   0.00001   0.00000  -0.00011  -0.00011  -3.01445
   D35       -0.97536  -0.00001   0.00000  -0.00032  -0.00032  -0.97568
   D36        1.11830  -0.00002   0.00000  -0.00069  -0.00069   1.11761
   D37        1.03473   0.00005   0.00000   0.00100   0.00100   1.03573
   D38       -3.03906  -0.00004   0.00000  -0.00072  -0.00072  -3.03978
   D39       -1.10080   0.00002   0.00000   0.00033   0.00033  -1.10047
   D40        1.10860  -0.00008   0.00000  -0.00139  -0.00139   1.10720
   D41       -3.13226   0.00004   0.00000   0.00057   0.00057  -3.13169
   D42       -0.92287  -0.00006   0.00000  -0.00115  -0.00115  -0.92402
   D43        0.87308   0.00001   0.00000   0.00274   0.00274   0.87582
   D44        2.95778   0.00001   0.00000   0.00267   0.00267   2.96045
   D45       -1.20541   0.00002   0.00000   0.00292   0.00292  -1.20249
   D46       -1.17406   0.00000   0.00000   0.00271   0.00271  -1.17135
   D47        0.91064   0.00000   0.00000   0.00264   0.00264   0.91328
   D48        3.03063   0.00001   0.00000   0.00288   0.00288   3.03352
   D49        3.01053   0.00001   0.00000   0.00316   0.00316   3.01369
   D50       -1.18795   0.00001   0.00000   0.00309   0.00309  -1.18487
   D51        0.93204   0.00002   0.00000   0.00334   0.00334   0.93537
   D52       -0.99477   0.00000   0.00000  -0.00079  -0.00079  -0.99556
   D53        3.11115  -0.00002   0.00000   0.00026   0.00026   3.11141
   D54        1.06644  -0.00001   0.00000  -0.00137  -0.00137   1.06507
   D55       -1.11083  -0.00003   0.00000  -0.00032  -0.00032  -1.11116
   D56       -3.12999   0.00001   0.00000  -0.00131  -0.00131  -3.13130
   D57        0.97593  -0.00001   0.00000  -0.00026  -0.00026   0.97566
   D58        2.97613   0.00003   0.00000   0.00161   0.00161   2.97774
   D59       -1.11116   0.00003   0.00000   0.00026   0.00026  -1.11091
   D60       -1.18127  -0.00001   0.00000   0.00100   0.00100  -1.18026
   D61        1.01463  -0.00002   0.00000  -0.00036  -0.00036   1.01427
   D62        0.90980   0.00003   0.00000   0.00136   0.00136   0.91116
   D63        3.10570   0.00002   0.00000   0.00000   0.00000   3.10570
         Item               Value     Threshold  Converged?
 Maximum Force            0.000132     0.000450     YES
 RMS     Force            0.000031     0.000300     YES
 Maximum Displacement     0.006644     0.001800     NO 
 RMS     Displacement     0.001194     0.001200     YES
 Predicted change in Energy=-7.050259D-07
 GradGradGradGradGradGradGradGradGradGradGradGradGradGradGradGradGradGrad

                          Input orientation:                          
 ---------------------------------------------------------------------
 Center     Atomic      Atomic             Coordinates (Angstroms)
 Number     Number       Type             X           Y           Z
 ---------------------------------------------------------------------
      1          6           0        0.641297   -1.453128   -0.119577
      2          6           0        1.936332   -0.728408    0.244733
      3          6           0        1.909015    0.696152   -0.307376
      4          6           0        0.635817    1.410738    0.130907
      5          6           0       -0.613537   -0.671966    0.296885
      6          1           0        2.779554    1.264649    0.032982
      7          1           0        2.041374   -0.693296    1.335787
      8          1           0        2.802217   -1.277731   -0.135803
      9          1           0        0.601105   -1.613153   -1.202902
     10          1           0        0.610946   -2.439733    0.352005
     11          1           0        0.658042    1.556204    1.229477
     12          1           0        0.593341    2.406686   -0.317145
     13          1           0       -0.617764   -0.601443    1.404150
     14          1           0        1.943649    0.670936   -1.401280
     15          6           0       -1.865864   -1.438458   -0.132667
     16          1           0       -1.792746   -2.475627    0.201832
     17          1           0       -2.780900   -1.024716    0.292195
     18          1           0       -1.959094   -1.436745   -1.221874
     19          6           0       -1.753838    1.477970    0.047067
     20          1           0       -2.649004    1.038437   -0.389913
     21          1           0       -1.915852    1.584948    1.135632
     22          1           0       -1.639016    2.478446   -0.373714
     23          7           0       -0.572654    0.687002   -0.273050
 ---------------------------------------------------------------------
                    Distance matrix (angstroms):
                    1          2          3          4          5
     1  C    0.000000
     2  C    1.528089   0.000000
     3  C    2.502356   1.528053   0.000000
     4  C    2.874804   2.506041   1.524388   0.000000
     5  C    1.535664   2.551027   2.932601   2.434356   0.000000
     6  H    3.461463   2.174428   1.094015   2.150939   3.915761
     7  H    2.157694   1.096661   2.155939   2.802550   2.851022
     8  H    2.168087   1.093764   2.173353   3.462988   3.495933
     9  H    1.095818   2.158993   2.800980   3.305173   2.147219
    10  H    1.093937   2.167207   3.457389   3.856893   2.151138
    11  H    3.297925   2.796999   2.160218   1.108382   2.729722
    12  H    3.865165   3.456610   2.158013   1.092917   3.363286
    13  H    2.152288   2.807806   3.316276   2.691000   1.109516
    14  H    2.801880   2.160458   1.094742   2.146003   3.350574
    15  C    2.507238   3.886296   4.340138   3.800762   1.529819
    16  H    2.659581   4.118329   4.901277   4.583315   2.157026
    17  H    3.473403   4.726768   5.031519   4.198976   2.195887
    18  H    2.824423   4.222206   4.510857   4.083104   2.168419
    19  C    3.788902   4.304013   3.762095   2.392069   2.446410
    20  H    4.136069   4.954778   4.571598   3.346626   2.745961
    21  H    4.164669   4.580900   4.183520   2.747878   2.737368
    22  H    4.552108   4.842469   3.971083   2.563105   3.380297
    23  N    2.465236   2.926858   2.481923   1.465392   1.474209
                    6          7          8          9         10
     6  H    0.000000
     7  H    2.464905   0.000000
     8  H    2.548077   1.756708   0.000000
     9  H    3.815075   3.060302   2.469029   0.000000
    10  H    4.304309   2.462517   2.527820   1.760984   0.000000
    11  H    2.453042   2.642946   3.806923   3.995564   4.091416
    12  H    2.491257   3.799852   4.299645   4.116277   4.892427
    13  H    4.111467   2.661602   3.811180   3.050560   2.448683
    14  H    1.763049   3.059774   2.477070   2.656848   3.811347
    15  C    5.377186   4.240062   4.670848   2.694783   2.715151
    16  H    5.909661   4.377560   4.760529   2.906486   2.408646
    17  H    6.018890   4.945023   5.605212   3.744266   3.675659
    18  H    5.597051   4.806048   4.886197   2.566340   3.176191
    19  C    4.538429   4.558380   5.327754   4.082060   4.586238
    20  H    5.449702   5.289290   5.928323   4.272598   4.824457
    21  H    4.833762   4.570568   5.663184   4.693790   4.816309
    22  H    4.600268   5.150497   5.821513   4.737814   5.456874
    23  N    3.415352   3.365520   3.907527   2.744640   3.401187
                   11         12         13         14         15
    11  H    0.000000
    12  H    1.766223   0.000000
    13  H    2.512694   3.671304   0.000000
    14  H    3.058981   2.451838   4.006272   0.000000
    15  C    4.146509   4.568025   2.149454   4.535560   0.000000
    16  H    4.828880   5.458913   2.517681   5.141155   1.092226
    17  H    4.400678   4.850910   2.468758   5.297590   1.090404
    18  H    4.670789   4.701641   3.064784   4.439134   1.093192
    19  C    2.687262   2.550375   2.730622   4.052211   2.924107
    20  H    3.718475   3.519972   3.167618   4.717030   2.610459
    21  H    2.575764   3.013613   2.556842   4.708193   3.279034
    22  H    2.949106   2.234227   3.699928   4.142279   3.930864
    23  N    2.127842   2.078173   2.115449   2.757706   2.491923
                   16         17         18         19         20
    16  H    0.000000
    17  H    1.757771   0.000000
    18  H    1.770279   1.771310   0.000000
    19  C    3.956816   2.716318   3.185578   0.000000
    20  H    3.664968   2.176987   2.700864   1.088790   0.000000
    21  H    4.168382   2.875769   3.832798   1.105743   1.778616
    22  H    4.989762   3.744259   4.018775   1.091418   1.758966
    23  N    3.422917   2.850585   2.707912   1.457154   2.109121
                   21         22         23
    21  H    0.000000
    22  H    1.775697   0.000000
    23  N    2.143565   2.087231   0.000000
 Stoichiometry    C7H15N
 Framework group  C1[X(C7H15N)]
 Deg. of freedom    63
 Full point group                 C1      NOp   1
 Largest Abelian subgroup         C1      NOp   1
 Largest concise Abelian subgroup C1      NOp   1
                         Standard orientation:                         
 ---------------------------------------------------------------------
 Center     Atomic      Atomic             Coordinates (Angstroms)
 Number     Number       Type             X           Y           Z
 ---------------------------------------------------------------------
      1          6           0       -0.640853    1.453373   -0.119419
      2          6           0       -1.936089    0.729012    0.244891
      3          6           0       -1.909167   -0.695556   -0.307219
      4          6           0       -0.636167   -1.410494    0.131065
      5          6           0        0.613764    0.671863    0.297043
      6          1           0       -2.779864   -1.263811    0.033140
      7          1           0       -2.041141    0.693930    1.335944
      8          1           0       -2.801822    1.278575   -0.135646
      9          1           0       -0.600616    1.613387   -1.202744
     10          1           0       -0.610228    2.439969    0.352163
     11          1           0       -0.658433   -1.555955    1.229634
     12          1           0       -0.593968   -2.406455   -0.316987
     13          1           0        0.617971    0.601338    1.404307
     14          1           0       -1.943794   -0.670330   -1.401123
     15          6           0        1.866304    1.438007   -0.132509
     16          1           0        1.793473    2.475197    0.201990
     17          1           0        2.781225    1.024011    0.292353
     18          1           0        1.959534    1.436269   -1.221717
     19          6           0        1.753468   -1.478390    0.047224
     20          1           0        2.648756   -1.039106   -0.389756
     21          1           0        1.915453   -1.585413    1.135790
     22          1           0        1.638369   -2.478834   -0.373556
     23          7           0        0.572504   -0.687094   -0.272892
 ---------------------------------------------------------------------
 Rotational constants (GHZ):      2.7793919      1.9659249      1.2467375
 Standard basis: 6-311+G(2d,p) (5D, 7F)
 There are   306 symmetry adapted basis functions of A   symmetry.
 Integral buffers will be    131072 words long.
 Raffenetti 2 integral format.
 Two-electron integral symmetry is turned on.
   306 basis functions,   456 primitive gaussians,   322 cartesian basis functions
    32 alpha electrons       32 beta electrons
       nuclear repulsion energy       418.1023384839 Hartrees.
 NAtoms=   23 NActive=   23 NUniq=   23 SFac= 1.00D+00 NAtFMM=   60 NAOKFM=F Big=F
 One-electron integrals computed using PRISM.
 NBasis=   306 RedAO= T  NBF=   306
 NBsUse=   306 1.00D-06 NBFU=   306
 Initial guess read from the read-write file.
 B after Tr=     0.000000    0.000000    0.000000
         Rot=    1.000000    0.000000    0.000000    0.000000 Ang=   0.00 deg.
 Initial guess orbital symmetries:
       Occupied  (A) (A) (A) (A) (A) (A) (A) (A) (A) (A) (A) (A)
                 (A) (A) (A) (A) (A) (A) (A) (A) (A) (A) (A) (A)
                 (A) (A) (A) (A) (A) (A) (A) (A)
       Virtual   (A) (A) (A) (A) (A) (A) (A) (A) (A) (A) (A) (A)
                 (A) (A) (A) (A) (A) (A) (A) (A) (A) (A) (A) (A)
                 (A) (A) (A) (A) (A) (A) (A) (A) (A) (A) (A) (A)
                 (A) (A) (A) (A) (A) (A) (A) (A) (A) (A) (A) (A)
                 (A) (A) (A) (A) (A) (A) (A) (A) (A) (A) (A) (A)
                 (A) (A) (A) (A) (A) (A) (A) (A) (A) (A) (A) (A)
                 (A) (A) (A) (A) (A) (A) (A) (A) (A) (A) (A) (A)
                 (A) (A) (A) (A) (A) (A) (A) (A) (A) (A) (A) (A)
                 (A) (A) (A) (A) (A) (A) (A) (A) (A) (A) (A) (A)
                 (A) (A) (A) (A) (A) (A) (A) (A) (A) (A) (A) (A)
                 (A) (A) (A) (A) (A) (A) (A) (A) (A) (A) (A) (A)
                 (A) (A) (A) (A) (A) (A) (A) (A) (A) (A) (A) (A)
                 (A) (A) (A) (A) (A) (A) (A) (A) (A) (A) (A) (A)
                 (A) (A) (A) (A) (A) (A) (A) (A) (A) (A) (A) (A)
                 (A) (A) (A) (A) (A) (A) (A) (A) (A) (A) (A) (A)
                 (A) (A) (A) (A) (A) (A) (A) (A) (A) (A) (A) (A)
                 (A) (A) (A) (A) (A) (A) (A) (A) (A) (A) (A) (A)
                 (A) (A) (A) (A) (A) (A) (A) (A) (A) (A) (A) (A)
                 (A) (A) (A) (A) (A) (A) (A) (A) (A) (A) (A) (A)
                 (A) (A) (A) (A) (A) (A) (A) (A) (A) (A) (A) (A)
                 (A) (A) (A) (A) (A) (A) (A) (A) (A) (A) (A) (A)
                 (A) (A) (A) (A) (A) (A) (A) (A) (A) (A) (A) (A)
                 (A) (A) (A) (A) (A) (A) (A) (A) (A) (A)
 Requested convergence on RMS density matrix=1.00D-08 within 128 cycles.
 Requested convergence on MAX density matrix=1.00D-06.
 Requested convergence on             energy=1.00D-06.
 No special actions if energy rises.
 Keep R1 ints in memory in canonical form, NReq=1369569276.
 SCF Done:  E(RB3LYP) =  -330.628193543     A.U. after    7 cycles
             Convg  =    0.3628D-08             -V/T =  2.0048
 Calling FoFJK, ICntrl=      2127 FMM=F ISym2X=0 I1Cent= 0 IOpClX= 0 NMat=1 NMatS=1 NMatT=0.
 ***** Axes restored to original set *****
 -------------------------------------------------------------------
 Center     Atomic                   Forces (Hartrees/Bohr)
 Number     Number              X              Y              Z
 -------------------------------------------------------------------
      1        6          -0.000005107   -0.000005629   -0.000019559
      2        6          -0.000001603   -0.000051060    0.000024756
      3        6          -0.000000515    0.000033184   -0.000004652
      4        6          -0.000000293   -0.000050816   -0.000016718
      5        6          -0.000070343   -0.000074452    0.000021005
      6        1           0.000004212   -0.000020268    0.000007511
      7        1          -0.000003939   -0.000008334   -0.000003696
      8        1          -0.000009305   -0.000003479   -0.000005320
      9        1          -0.000004657    0.000002325    0.000000271
     10        1          -0.000006268   -0.000008687   -0.000007729
     11        1          -0.000009461   -0.000005016    0.000005669
     12        1           0.000016571    0.000021870    0.000010209
     13        1          -0.000001902   -0.000007370   -0.000000394
     14        1           0.000001012   -0.000005507    0.000005384
     15        6           0.000027658    0.000006021    0.000010458
     16        1           0.000002517    0.000008531   -0.000003231
     17        1           0.000006544   -0.000006706   -0.000016713
     18        1          -0.000010777    0.000001707   -0.000008579
     19        6          -0.000016625    0.000031607    0.000005390
     20        1           0.000016836    0.000032334    0.000002240
     21        1           0.000008670    0.000005145    0.000010256
     22        1           0.000000770    0.000002861   -0.000010145
     23        7           0.000056004    0.000101738   -0.000006413
 -------------------------------------------------------------------
 Cartesian Forces:  Max     0.000101738 RMS     0.000023670

 GradGradGradGradGradGradGradGradGradGradGradGradGradGradGradGradGradGrad
 Berny optimization.
 Using GEDIIS/GDIIS optimizer.
 Internal  Forces:  Max     0.000128089 RMS     0.000017511
 Search for a local minimum.
 Step number   2 out of a maximum of  138 on scan point     1 out of    19
 All quantities printed in internal units (Hartrees-Bohrs-Radians)
 Mixed Optimization -- En-DIIS/RFO-DIIS
 Swaping is turned off.
 Update second derivatives using D2CorX and points    1    2
 DE= -9.63D-07 DEPred=-7.05D-07 R= 1.37D+00
 Trust test= 1.37D+00 RLast= 1.04D-02 DXMaxT set to 3.00D-01
 ITU=  0  0
     Eigenvalues ---    0.00355   0.00585   0.00638   0.01020   0.01694
     Eigenvalues ---    0.02303   0.02841   0.03938   0.03976   0.04370
     Eigenvalues ---    0.04669   0.04824   0.04925   0.05069   0.05341
     Eigenvalues ---    0.05594   0.05695   0.05950   0.06270   0.07075
     Eigenvalues ---    0.07226   0.07881   0.07993   0.08322   0.09013
     Eigenvalues ---    0.09365   0.10046   0.12037   0.13327   0.15373
     Eigenvalues ---    0.15512   0.16000   0.16000   0.16000   0.16000
     Eigenvalues ---    0.16222   0.16606   0.18859   0.20219   0.27562
     Eigenvalues ---    0.28417   0.28727   0.29516   0.29623   0.32626
     Eigenvalues ---    0.32760   0.33046   0.33985   0.34071   0.34210
     Eigenvalues ---    0.34270   0.34356   0.34379   0.34385   0.34458
     Eigenvalues ---    0.34470   0.34560   0.34654   0.34865   0.34950
     Eigenvalues ---    0.35585   0.384801000.000001000.000001000.00000
     Eigenvalues --- 1000.000001000.000001000.000001000.000001000.00000
     Eigenvalues --- 1000.000001000.000001000.000001000.000001000.00000
     Eigenvalues --- 1000.000001000.000001000.000001000.000001000.00000
     Eigenvalues --- 1000.000001000.000001000.000001000.000001000.00000
     Eigenvalues --- 1000.000001000.000001000.000001000.000001000.00000
     Eigenvalues --- 1000.000001000.000001000.000001000.000001000.00000
     Eigenvalues --- 1000.000001000.000001000.000001000.000001000.00000
     Eigenvalues --- 1000.000001000.000001000.000001000.000001000.00000
     Eigenvalues --- 1000.000001000.000001000.000001000.000001000.00000
     Eigenvalues --- 1000.000001000.000001000.000001000.000001000.00000
     Eigenvalues --- 1000.000001000.000001000.000001000.000001000.00000
     Eigenvalues --- 1000.000001000.000001000.000001000.000001000.00000
     Eigenvalues --- 1000.000001000.000001000.000001000.000001000.00000
     Eigenvalues --- 1000.00000
 En-DIIS/RFO-DIIS IScMMF=        0 using points:     2    1
 RFO step:  Lambda=-8.62941699D-08.
 DidBck=F Rises=F RFO-DIIS coefs:    1.01791   -0.01791
 Iteration  1 RMS(Cart)=  0.00044946 RMS(Int)=  0.00000013
 Iteration  2 RMS(Cart)=  0.00000015 RMS(Int)=  0.00000001
 Iteration  1 RMS(Cart)=  0.00000000 RMS(Int)=  0.00000000
 Variable       Old X    -DE/DX   Delta X   Delta X   Delta X     New X
                                  (DIIS)     (GDIIS)  (Total)
    R1        2.88767  -0.00001   0.00000  -0.00004  -0.00004   2.88763
    R2        2.90198   0.00001   0.00000   0.00007   0.00007   2.90205
    R3        2.07080   0.00000   0.00000  -0.00001  -0.00001   2.07079
    R4        2.06724   0.00000   0.00000   0.00002   0.00002   2.06726
    R5        2.88760   0.00002   0.00001   0.00013   0.00013   2.88773
    R6        2.07239   0.00000   0.00000  -0.00001  -0.00001   2.07238
    R7        2.06691  -0.00001   0.00000  -0.00002  -0.00002   2.06690
    R8        2.88068  -0.00001   0.00000  -0.00007  -0.00007   2.88061
    R9        2.06739  -0.00001   0.00000  -0.00001  -0.00001   2.06738
   R10        2.06876   0.00000   0.00000   0.00000   0.00000   2.06876
   R11        2.09454   0.00000   0.00000  -0.00001  -0.00001   2.09453
   R12        2.06531   0.00002   0.00000   0.00006   0.00006   2.06538
   R13        2.76919  -0.00003  -0.00001  -0.00011  -0.00011   2.76908
   R14        2.09668   0.00000   0.00000   0.00000  -0.00001   2.09668
   R15        2.89094  -0.00003   0.00000  -0.00010  -0.00010   2.89084
   R16        2.78585   0.00013   0.00000   0.00039   0.00039   2.78624
   R17        2.06401   0.00000   0.00000   0.00000   0.00000   2.06401
   R18        2.06057  -0.00002   0.00000  -0.00004  -0.00004   2.06053
   R19        2.06583   0.00000   0.00000   0.00001   0.00001   2.06585
   R20        2.05751  -0.00002   0.00000  -0.00006  -0.00006   2.05745
   R21        2.08955   0.00001   0.00000   0.00003   0.00003   2.08958
   R22        2.06248   0.00000   0.00000   0.00000   0.00000   2.06248
   R23        2.75362   0.00004   0.00000   0.00007   0.00007   2.75369
    A1        1.96774   0.00000   0.00000   0.00006   0.00006   1.96780
    A2        1.91350   0.00001   0.00000  -0.00001  -0.00001   1.91349
    A3        1.92674  -0.00001   0.00000  -0.00004  -0.00005   1.92669
    A4        1.88853   0.00000   0.00000  -0.00002  -0.00001   1.88852
    A5        1.89567   0.00001   0.00000   0.00003   0.00003   1.89571
    A6        1.86863   0.00000   0.00000  -0.00003  -0.00003   1.86860
    A7        1.91862   0.00001   0.00000  -0.00007  -0.00007   1.91855
    A8        1.91086   0.00000   0.00000   0.00009   0.00009   1.91095
    A9        1.92813   0.00000   0.00000   0.00001   0.00002   1.92815
   A10        1.90851  -0.00001   0.00000  -0.00002  -0.00002   1.90849
   A11        1.93549  -0.00001   0.00000  -0.00008  -0.00008   1.93541
   A12        1.86125   0.00000   0.00000   0.00006   0.00006   1.86132
   A13        1.92631   0.00001   0.00000   0.00001   0.00001   1.92631
   A14        1.93672  -0.00001   0.00000  -0.00003  -0.00003   1.93669
   A15        1.91665   0.00000   0.00000  -0.00002  -0.00002   1.91663
   A16        1.90876   0.00000   0.00000   0.00006   0.00006   1.90882
   A17        1.90129  -0.00001   0.00000  -0.00004  -0.00005   1.90125
   A18        1.87304   0.00000   0.00000   0.00003   0.00003   1.87308
   A19        1.90683   0.00002   0.00001   0.00011   0.00011   1.90694
[...]
      4          6           0       -0.636041   -1.410501    0.131066
      5          6           0        0.613799    0.671876    0.297141
      6          1           0       -2.779770   -1.263869    0.033393
      7          1           0       -2.041353    0.694029    1.335842
      8          1           0       -2.801778    1.278429   -0.136019
      9          1           0       -0.600535    1.613170   -1.202798
     10          1           0       -0.610332    2.439979    0.351958
     11          1           0       -0.658059   -1.555841    1.229660
     12          1           0       -0.593956   -2.406604   -0.316773
     13          1           0        0.617836    0.601168    1.404386
     14          1           0       -1.943831   -0.670564   -1.401039
     15          6           0        1.866029    1.438522   -0.132041
     16          1           0        1.792955    2.475319    0.203633
     17          1           0        2.781198    1.024366    0.292069
     18          1           0        1.959033    1.438103   -1.221278
     19          6           0        1.753567   -1.478669    0.046841
     20          1           0        2.648859   -1.039449   -0.390164
     21          1           0        1.915605   -1.585845    1.135380
     22          1           0        1.638330   -2.479007   -0.374148
     23          7           0        0.572578   -0.687193   -0.273060
 ---------------------------------------------------------------------
 Rotational constants (GHZ):      2.7788301      1.9660481      1.2466612

 **********************************************************************

            Population analysis using the SCF density.

 **********************************************************************

 Orbital symmetries:
       Occupied  (A) (A) (A) (A) (A) (A) (A) (A) (A) (A) (A) (A)
                 (A) (A) (A) (A) (A) (A) (A) (A) (A) (A) (A) (A)
                 (A) (A) (A) (A) (A) (A) (A) (A)
       Virtual   (A) (A) (A) (A) (A) (A) (A) (A) (A) (A) (A) (A)
                 (A) (A) (A) (A) (A) (A) (A) (A) (A) (A) (A) (A)
                 (A) (A) (A) (A) (A) (A) (A) (A) (A) (A) (A) (A)
                 (A) (A) (A) (A) (A) (A) (A) (A) (A) (A) (A) (A)
                 (A) (A) (A) (A) (A) (A) (A) (A) (A) (A) (A) (A)
                 (A) (A) (A) (A) (A) (A) (A) (A) (A) (A) (A) (A)
                 (A) (A) (A) (A) (A) (A) (A) (A) (A) (A) (A) (A)
                 (A) (A) (A) (A) (A) (A) (A) (A) (A) (A) (A) (A)
                 (A) (A) (A) (A) (A) (A) (A) (A) (A) (A) (A) (A)
                 (A) (A) (A) (A) (A) (A) (A) (A) (A) (A) (A) (A)
                 (A) (A) (A) (A) (A) (A) (A) (A) (A) (A) (A) (A)
                 (A) (A) (A) (A) (A) (A) (A) (A) (A) (A) (A) (A)
                 (A) (A) (A) (A) (A) (A) (A) (A) (A) (A) (A) (A)
                 (A) (A) (A) (A) (A) (A) (A) (A) (A) (A) (A) (A)
                 (A) (A) (A) (A) (A) (A) (A) (A) (A) (A) (A) (A)
                 (A) (A) (A) (A) (A) (A) (A) (A) (A) (A) (A) (A)
                 (A) (A) (A) (A) (A) (A) (A) (A) (A) (A) (A) (A)
                 (A) (A) (A) (A) (A) (A) (A) (A) (A) (A) (A) (A)
                 (A) (A) (A) (A) (A) (A) (A) (A) (A) (A) (A) (A)
                 (A) (A) (A) (A) (A) (A) (A) (A) (A) (A) (A) (A)
                 (A) (A) (A) (A) (A) (A) (A) (A) (A) (A) (A) (A)
                 (A) (A) (A) (A) (A) (A) (A) (A) (A) (A) (A) (A)
                 (A) (A) (A) (A) (A) (A) (A) (A) (A) (A)
 The electronic state is 1-A.
 Alpha  occ. eigenvalues --  -14.30145 -10.19588 -10.18660 -10.18141 -10.16183
 Alpha  occ. eigenvalues --  -10.16079 -10.16012 -10.15586  -0.92556  -0.79750
 Alpha  occ. eigenvalues --   -0.77373  -0.69974  -0.67771  -0.62068  -0.59158
 Alpha  occ. eigenvalues --   -0.54969  -0.48368  -0.47090  -0.45097  -0.44708
 Alpha  occ. eigenvalues --   -0.43742  -0.40759  -0.39267  -0.38745  -0.37570
 Alpha  occ. eigenvalues --   -0.37056  -0.36028  -0.33863  -0.32723  -0.31455
 Alpha  occ. eigenvalues --   -0.30756  -0.21817
 Alpha virt. eigenvalues --    0.00626   0.01346   0.01846   0.02105   0.04056
 Alpha virt. eigenvalues --    0.04281   0.04950   0.05377   0.05780   0.07077
 Alpha virt. eigenvalues --    0.07416   0.07985   0.08203   0.09005   0.09145
 Alpha virt. eigenvalues --    0.09466   0.11441   0.11892   0.13045   0.13180
 Alpha virt. eigenvalues --    0.13502   0.13747   0.14597   0.15440   0.16221
 Alpha virt. eigenvalues --    0.16528   0.17279   0.18368   0.18740   0.19448
 Alpha virt. eigenvalues --    0.19594   0.20652   0.21124   0.21744   0.21891
 Alpha virt. eigenvalues --    0.22783   0.23555   0.24110   0.24249   0.25129
 Alpha virt. eigenvalues --    0.25923   0.27328   0.27835   0.28006   0.28295
 Alpha virt. eigenvalues --    0.28852   0.29181   0.29324   0.29959   0.30795
 Alpha virt. eigenvalues --    0.31080   0.32635   0.33195   0.34509   0.38586
 Alpha virt. eigenvalues --    0.40519   0.41674   0.42468   0.43088   0.44916
 Alpha virt. eigenvalues --    0.46455   0.47859   0.49147   0.51970   0.52758
 Alpha virt. eigenvalues --    0.53999   0.54921   0.55231   0.56546   0.56809
 Alpha virt. eigenvalues --    0.57092   0.59364   0.59634   0.61115   0.62016
 Alpha virt. eigenvalues --    0.62565   0.64240   0.65833   0.65990   0.66732
 Alpha virt. eigenvalues --    0.67136   0.67904   0.68532   0.69705   0.70202
 Alpha virt. eigenvalues --    0.71254   0.72439   0.73438   0.73739   0.74765
 Alpha virt. eigenvalues --    0.75158   0.76494   0.77546   0.78737   0.79670
 Alpha virt. eigenvalues --    0.83522   0.86444   0.86959   0.90246   0.91009
 Alpha virt. eigenvalues --    0.91902   0.93682   0.95249   0.97237   0.99925
 Alpha virt. eigenvalues --    1.01599   1.02965   1.04839   1.06213   1.08624
 Alpha virt. eigenvalues --    1.10632   1.13466   1.14915   1.16654   1.17460
 Alpha virt. eigenvalues --    1.20947   1.22339   1.23763   1.24465   1.25762
 Alpha virt. eigenvalues --    1.27490   1.28155   1.29903   1.31402   1.33608
 Alpha virt. eigenvalues --    1.34094   1.36033   1.37181   1.37700   1.39917
 Alpha virt. eigenvalues --    1.41206   1.41723   1.43525   1.46644   1.47493
 Alpha virt. eigenvalues --    1.51181   1.52711   1.54697   1.56272   1.65877
 Alpha virt. eigenvalues --    1.67077   1.69927   1.75798   1.76622   1.80089
 Alpha virt. eigenvalues --    1.80816   1.81828   1.83691   1.87534   1.88140
 Alpha virt. eigenvalues --    1.89573   1.90306   1.94662   1.95579   1.99296
 Alpha virt. eigenvalues --    2.00645   2.01880   2.04681   2.09395   2.12557
 Alpha virt. eigenvalues --    2.16328   2.17614   2.19861   2.20927   2.23752
 Alpha virt. eigenvalues --    2.26131   2.28334   2.29056   2.30461   2.31713
 Alpha virt. eigenvalues --    2.33036   2.33498   2.35222   2.36472   2.37628
 Alpha virt. eigenvalues --    2.38751   2.40602   2.42591   2.42962   2.43674
 Alpha virt. eigenvalues --    2.48008   2.50346   2.51920   2.53744   2.56176
 Alpha virt. eigenvalues --    2.58890   2.63130   2.67420   2.72802   2.73904
 Alpha virt. eigenvalues --    2.75235   2.75452   2.77043   2.81184   2.84931
 Alpha virt. eigenvalues --    2.85582   2.87374   2.88026   2.88334   2.91445
 Alpha virt. eigenvalues --    2.94950   2.96441   3.03295   3.08646   3.15037
 Alpha virt. eigenvalues --    3.18514   3.21954   3.25643   3.29522   3.30033
 Alpha virt. eigenvalues --    3.33471   3.34441   3.35517   3.37679   3.39898
 Alpha virt. eigenvalues --    3.42699   3.44232   3.46077   3.46538   3.48237
 Alpha virt. eigenvalues --    3.50587   3.52305   3.53846   3.54747   3.56716
 Alpha virt. eigenvalues --    3.57282   3.59988   3.61837   3.63035   3.64933
 Alpha virt. eigenvalues --    3.65589   3.66970   3.68815   3.71074   3.72860
 Alpha virt. eigenvalues --    3.75905   3.76923   3.79724   3.81726   3.83434
 Alpha virt. eigenvalues --    3.86896   3.97056   4.00439   4.02176   4.09314
 Alpha virt. eigenvalues --    4.20483   4.22808   4.23929   4.25827   4.26653
 Alpha virt. eigenvalues --    4.27148   4.29352   4.31072   4.31164   4.39942
 Alpha virt. eigenvalues --    4.46396   4.49862   4.55274   4.57949   5.01866
 Alpha virt. eigenvalues --    5.04770   5.30580   5.33242   5.37932   5.57549
 Alpha virt. eigenvalues --    5.62912  23.85979  23.93164  23.97330  24.00989
 Alpha virt. eigenvalues --   24.03045  24.08636  24.16379  35.60938
          Condensed to atoms (all electrons):
              1          2          3          4          5          6
     1  C    5.439698  -0.013749  -0.003785  -0.003010   0.123791   0.019319
     2  C   -0.013749   5.492557   0.054215   0.023860   0.122580  -0.035547
     3  C   -0.003785   0.054215   5.419703   0.127067   0.075718   0.398363
     4  C   -0.003010   0.023860   0.127067   5.239109  -0.284960  -0.024445
     5  C    0.123791   0.122580   0.075718  -0.284960   5.445736  -0.007298
     6  H    0.019319  -0.035547   0.398363  -0.024445  -0.007298   0.607367
     7  H   -0.076338   0.446610  -0.047188  -0.007551   0.021708  -0.008224
     8  H   -0.032253   0.417103  -0.042692   0.015955   0.000958  -0.003965
     9  H    0.467657  -0.059405  -0.000550   0.003483  -0.083970  -0.000078
    10  H    0.401413  -0.017938   0.019827  -0.008918  -0.041735  -0.000435
    11  H    0.021420  -0.023253  -0.093595   0.459088  -0.044118  -0.004561
    12  H   -0.013416   0.027514  -0.007272   0.382416   0.030396  -0.004833
    13  H   -0.037522  -0.040930   0.007572   0.012408   0.319166   0.000070
    14  H    0.001185  -0.076532   0.485045  -0.077337   0.003754  -0.041135
    15  C    0.051077  -0.123278   0.006677  -0.040056   0.109752  -0.000172
    16  H   -0.013012   0.001097   0.001842  -0.001540  -0.045937  -0.000002
    17  H    0.014564   0.002547  -0.000533   0.000755  -0.020444  -0.000004
    18  H   -0.010858  -0.007622  -0.001343   0.002861  -0.082809  -0.000001
    19  C   -0.029218   0.003895  -0.043352  -0.060921  -0.090715  -0.001573
    20  H   -0.008480   0.003070   0.001437   0.002466   0.038246   0.000017
    21  H    0.007467  -0.008442  -0.002353  -0.006404  -0.048806   0.000079
    22  H    0.000532   0.000852   0.002908   0.000600   0.010863  -0.000083
    23  N   -0.027512  -0.029266  -0.043734   0.306204   0.265509   0.005247
              7          8          9         10         11         12
     1  C   -0.076338  -0.032253   0.467657   0.401413   0.021420  -0.013416
     2  C    0.446610   0.417103  -0.059405  -0.017938  -0.023253   0.027514
     3  C   -0.047188  -0.042692  -0.000550   0.019827  -0.093595  -0.007272
     4  C   -0.007551   0.015955   0.003483  -0.008918   0.459088   0.382416
     5  C    0.021708   0.000958  -0.083970  -0.041735  -0.044118   0.030396
     6  H   -0.008224  -0.003965  -0.000078  -0.000435  -0.004561  -0.004833
     7  H    0.597160  -0.039768   0.007809  -0.008184   0.001125  -0.000159
     8  H   -0.039768   0.605301  -0.007227  -0.004638  -0.000271  -0.000384
     9  H    0.007809  -0.007227   0.587616  -0.041134  -0.000121  -0.000084
    10  H   -0.008184  -0.004638  -0.041134   0.607235   0.000170   0.000124
    11  H    0.001125  -0.000271  -0.000121   0.000170   0.637511  -0.047470
    12  H   -0.000159  -0.000384  -0.000084   0.000124  -0.047470   0.616876
    13  H    0.001242  -0.000211   0.008873  -0.004561   0.014220  -0.000722
    14  H    0.007862  -0.006777   0.000640  -0.000062   0.008314  -0.007446
    15  C    0.003941  -0.002130   0.004840  -0.013646   0.015132  -0.004930
    16  H    0.000043  -0.000044  -0.000084   0.003365   0.000025   0.000027
    17  H    0.000000   0.000018  -0.000154  -0.000135  -0.000024  -0.000007
    18  H   -0.000003   0.000018   0.003902   0.000385   0.000079  -0.000024
    19  C    0.000870  -0.000282   0.002079  -0.000828   0.020047  -0.019850
    20  H    0.000002  -0.000005  -0.000018  -0.000045  -0.001286   0.000778
    21  H   -0.000044  -0.000005   0.000050   0.000090   0.015980  -0.001899
    22  H    0.000005  -0.000004  -0.000014   0.000020  -0.002470   0.007836
    23  N   -0.006066  -0.001572  -0.003139   0.007612  -0.063803  -0.055280
             13         14         15         16         17         18
     1  C   -0.037522   0.001185   0.051077  -0.013012   0.014564  -0.010858
     2  C   -0.040930  -0.076532  -0.123278   0.001097   0.002547  -0.007622
     3  C    0.007572   0.485045   0.006677   0.001842  -0.000533  -0.001343
     4  C    0.012408  -0.077337  -0.040056  -0.001540   0.000755   0.002861
     5  C    0.319166   0.003754   0.109752  -0.045937  -0.020444  -0.082809
     6  H    0.000070  -0.041135  -0.000172  -0.000002  -0.000004  -0.000001
     7  H    0.001242   0.007862   0.003941   0.000043   0.000000  -0.000003
     8  H   -0.000211  -0.006777  -0.002130  -0.000044   0.000018   0.000018
     9  H    0.008873   0.000640   0.004840  -0.000084  -0.000154   0.003902
    10  H   -0.004561  -0.000062  -0.013646   0.003365  -0.000135   0.000385
    11  H    0.014220   0.008314   0.015132   0.000025  -0.000024   0.000079
    12  H   -0.000722  -0.007446  -0.004930   0.000027  -0.000007  -0.000024
    13  H    0.676071  -0.000226   0.008508  -0.003451  -0.007865   0.008722
    14  H   -0.000226   0.587785   0.005006   0.000007   0.000008  -0.000038
    15  C    0.008508   0.005006   5.406704   0.413446   0.386731   0.467580
    16  H   -0.003451   0.000007   0.413446   0.570396  -0.027667  -0.028479
    17  H   -0.007865   0.000008   0.386731  -0.027667   0.577923  -0.032728
    18  H    0.008722  -0.000038   0.467580  -0.028479  -0.032728   0.541296
    19  C    0.021284   0.002157  -0.050092   0.003123  -0.004475  -0.001113
    20  H   -0.003002  -0.000016  -0.018599   0.000403  -0.003104  -0.000396
    21  H    0.016778   0.000016   0.019178  -0.000089  -0.000074   0.000606
    22  H   -0.000824   0.000025   0.000643  -0.000008   0.000339  -0.000219
    23  N   -0.055510  -0.001901  -0.054762   0.009572  -0.004902   0.003565
             19         20         21         22         23
     1  C   -0.029218  -0.008480   0.007467   0.000532  -0.027512
     2  C    0.003895   0.003070  -0.008442   0.000852  -0.029266
     3  C   -0.043352   0.001437  -0.002353   0.002908  -0.043734
     4  C   -0.060921   0.002466  -0.006404   0.000600   0.306204
     5  C   -0.090715   0.038246  -0.048806   0.010863   0.265509
     6  H   -0.001573   0.000017   0.000079  -0.000083   0.005247
     7  H    0.000870   0.000002  -0.000044   0.000005  -0.006066
     8  H   -0.000282  -0.000005  -0.000005  -0.000004  -0.001572
     9  H    0.002079  -0.000018   0.000050  -0.000014  -0.003139
    10  H   -0.000828  -0.000045   0.000090   0.000020   0.007612
    11  H    0.020047  -0.001286   0.015980  -0.002470  -0.063803
    12  H   -0.019850   0.000778  -0.001899   0.007836  -0.055280
    13  H    0.021284  -0.003002   0.016778  -0.000824  -0.055510
    14  H    0.002157  -0.000016   0.000016   0.000025  -0.001901
    15  C   -0.050092  -0.018599   0.019178   0.000643  -0.054762
    16  H    0.003123   0.000403  -0.000089  -0.000008   0.009572
    17  H   -0.004475  -0.003104  -0.000074   0.000339  -0.004902
    18  H   -0.001113  -0.000396   0.000606  -0.000219   0.003565
    19  C    4.954465   0.416596   0.430833   0.406858   0.297848
    20  H    0.416596   0.579986  -0.047705  -0.022351  -0.054461
    21  H    0.430833  -0.047705   0.612937  -0.039422  -0.053693
    22  H    0.406858  -0.022351  -0.039422   0.581857  -0.056944
    23  N    0.297848  -0.054461  -0.053693  -0.056944   6.715807
 Mulliken atomic charges:
              1
     1  C   -0.278970
     2  C   -0.159938
     3  C   -0.313977
     4  C   -0.061132
     5  C    0.182612
     6  H    0.101893
     7  H    0.105149
     8  H    0.102874
     9  H    0.109030
    10  H    0.102016
    11  H    0.087861
    12  H    0.097807
    13  H    0.059908
    14  H    0.109665
    15  C   -0.591549
    16  H    0.116968
    17  H    0.119230
    18  H    0.136619
    19  C   -0.257639
    20  H    0.116468
    21  H    0.104922
    22  H    0.109003
    23  N   -0.098820
 Sum of Mulliken atomic charges =   0.00000
 Mulliken charges with hydrogens summed into heavy atoms:
              1
     1  C   -0.067923
     2  C    0.048084
     3  C   -0.102419
     4  C    0.124535
     5  C    0.242520
    15  C   -0.218732
    19  C    0.072754
    23  N   -0.098820
 Sum of Mulliken charges with hydrogens summed into heavy atoms =   0.00000
 Electronic spatial extent (au):  <R**2>=           1059.9588
 Charge=              0.0000 electrons
 Dipole moment (field-independent basis, Debye):
    X=             -0.0949    Y=              0.0142    Z=              0.4885  Tot=              0.4978
 Quadrupole moment (field-independent basis, Debye-Ang):
   XX=            -52.2439   YY=            -52.0435   ZZ=            -54.9606
   XY=             -0.0470   XZ=              0.3326   YZ=              0.0749
 Traceless Quadrupole moment (field-independent basis, Debye-Ang):
   XX=              0.8388   YY=              1.0392   ZZ=             -1.8780
   XY=             -0.0470   XZ=              0.3326   YZ=              0.0749
 Octapole moment (field-independent basis, Debye-Ang**2):
  XXX=              2.2461  YYY=             -3.5869  ZZZ=             -1.2601  XYY=              0.0228
  XXY=             -1.9686  XXZ=             -1.4031  XZZ=             -1.1063  YZZ=              1.1461
  YYZ=             -1.4253  XYZ=              0.5709
 Hexadecapole moment (field-independent basis, Debye-Ang**3):
 XXXX=           -792.0245 YYYY=           -563.4131 ZZZZ=           -135.6980 XXXY=             -3.9715
 XXXZ=             -1.6281 YYYX=             -1.9576 YYYZ=             11.2870 ZZZX=             -0.2990
 ZZZY=             -0.8172 XXYY=           -230.6117 XXZZ=           -156.7906 YYZZ=           -120.2981
 XXYZ=             -0.3746 YYXZ=             -0.5725 ZZXY=              0.3577
 N-N= 4.180935079679D+02 E-N=-1.602556850503D+03  KE= 3.290437450623D+02
 1\1\GINC-UREY\Scan\RB3LYP\6-311+G(2d,p)\C7H15N1\DOLEARY\06-Mar-2016\0\
 \# opt=modredundant rb3lyp/6-311+g(2d,p)\\Title Card Required\\0,1\C,0
 .6349647825,-1.4040376119,-0.3766626626\C,1.8789304306,-0.8514245152,0
 .3176955971\C,1.9479009925,0.6640614631,0.1341836338\C,0.6375209745,1.
 3112302985,0.5674786331\C,-0.6532763706,-0.6879665925,0.0546141038\H,2
 .7722521853,1.0912136927,0.7128335602\H,1.8352262485,-1.0861917927,1.3
 880271615\H,2.7803400238,-1.3328811886,-0.0721260538\H,0.7401353043,-1
 .2952646104,-1.4619787554\H,0.5263079403,-2.4728229893,-0.1702323953\H
 ,0.5119347229,1.1855442548,1.6615300428\H,0.671181086,2.3868797679,0.3
 766972032\H,-0.8069291095,-0.8868422343,1.1352831087\H,2.130798741,0.9
 024365461,-0.9185151283\C,-1.8464089588,-1.2679815145,-0.7069894631\H,
 -1.8346956646,-2.3574315879,-0.6299978384\H,-2.8046917028,-0.925746281
 4,-0.3152027226\H,-1.7903059682,-0.9999258234,-1.765331201\C,-1.717157
 7698,1.5108038962,0.1965011731\H,-2.5509106023,1.2331188122,-0.4462923
 746\H,-2.0242527909,1.3592744567,1.247877276\H,-1.5312488188,2.5766194
 012,0.0527567884\N,-0.5151936757,0.7650981526,-0.1537986865\\Version=E
 M64L-G09RevC.01\State=1-A\HF=-330.6281936,-330.6269615,-330.6242041,-3
 30.622437,-330.6240784,-330.6270661,-330.6281864,-330.6268114,-330.624
 1458,-330.6224455,-330.6238701,-330.6268585,-330.6281934,-330.6269724,
 -330.6241848,-330.6224356,-330.6239902,-330.626902,-330.6281935\RMSD=6
 .584e-09,2.288e-09,7.544e-09,4.396e-09,9.852e-09,2.916e-09,2.166e-09,9
 .511e-09,6.497e-09,3.673e-09,1.732e-09,2.415e-09,1.195e-09,4.059e-09,4
 .980e-09,9.727e-09,9.279e-09,2.790e-09,4.894e-09\PG=C01 [X(C7H15N1)]\\
 @



 WE LOSE BECAUSE WE WIN

 GAMBLERS,

 RECOLLECTING WHICH,

 TOSS THEIR DICE AGAIN....


                          EMILY DICKINSON  BOLTS OF MELODY NO. 533
 Job cpu time:  3 days  5 hours 44 minutes 12.8 seconds.
 File lengths (MBytes):  RWF=     52 Int=      0 D2E=      0 Chk=     11 Scr=      1
 Normal termination of Gaussian 09 at Sun Mar  6 18:08:49 2016.
