 Entering Gaussian System, Link 0=g09
 Initial command:
 /export/apps/g09-D.01/l1.exe "/state/partition1/brueckna-biphendimethyl_ts_b3lyp_631gdp-203413/Gau-18188.inp" -scrdir="/state/partition1/brueckna-biphendimethyl_ts_b3lyp_631gdp-203413/"
 Entering Link 1 = /export/apps/g09-D.01/l1.exe PID=     18190.
  
 Copyright (c) 1988,1990,1992,1993,1995,1998,2003,2009,2013,
            Gaussian, Inc.  All Rights Reserved.
  
 This is part of the Gaussian(R) 09 program.  It is based on
 the Gaussian(R) 03 system (copyright 2003, Gaussian, Inc.),
 the Gaussian(R) 98 system (copyright 1998, Gaussian, Inc.),
 the Gaussian(R) 94 system (copyright 1995, Gaussian, Inc.),
 the Gaussian 92(TM) system (copyright 1992, Gaussian, Inc.),
 the Gaussian 90(TM) system (copyright 1990, Gaussian, Inc.),
 the Gaussian 88(TM) system (copyright 1988, Gaussian, Inc.),
 the Gaussian 86(TM) system (copyright 1986, Carnegie Mellon
 University), and the Gaussian 82(TM) system (copyright 1983,
 Carnegie Mellon University). Gaussian is a federally registered
 trademark of Gaussian, Inc.
  
 This software contains proprietary and confidential information,
 including trade secrets, belonging to Gaussian, Inc.
  
 This software is provided under written license and may be
 used, copied, transmitted, or stored only in accord with that
 written license.
  
 The following legend is applicable only to US Government
 contracts under FAR:
  
                    RESTRICTED RIGHTS LEGEND
  
 Use, reproduction and disclosure by the US Government is
 subject to restrictions as set forth in subparagraphs (a)
 and (c) of the Commercial Computer Software - Restricted
 Rights clause in FAR 52.227-19.
  
 Gaussian, Inc.
 340 Quinnipiac St., Bldg. 40, Wallingford CT 06492
  
  
 ---------------------------------------------------------------
 Warning -- This program may not be used in any manner that
 competes with the business of Gaussian, Inc. or will provide
 assistance to any competitor of Gaussian, Inc.  The licensee
 of this program is prohibited from giving any competitor of
 Gaussian, Inc. access to this program.  By using this program,
 the user acknowledges that Gaussian, Inc. is engaged in the
 business of creating and licensing software in the field of
 computational chemistry and represents and warrants to the
 licensee that it is not a competitor of Gaussian, Inc. and that
 it will not use this program in any manner prohibited above.
 ---------------------------------------------------------------
  

 Cite this work as:
 Gaussian 09, Revision D.01,
 M. J. Frisch, G. W. Trucks, H. B. Schlegel, G. E. Scuseria, 
 M. A. Robb, J. R. Cheeseman, G. Scalmani, V. Barone, B. Mennucci, 
 G. A. Petersson, H. Nakatsuji, M. Caricato, X. Li, H. P. Hratchian, 
 A. F. Izmaylov, J. Bloino, G. Zheng, J. L. Sonnenberg, M. Hada, 
 M. Ehara, K. Toyota, R. Fukuda, J. Hasegawa, M. Ishida, T. Nakajima, 
 Y. Honda, O. Kitao, H. Nakai, T. Vreven, J. A. Montgomery, Jr., 
 J. E. Peralta, F. Ogliaro, M. Bearpark, J. J. Heyd, E. Brothers, 
 K. N. Kudin, V. N. Staroverov, T. Keith, R. Kobayashi, J. Normand, 
 K. Raghavachari, A. Rendell, J. C. Burant, S. S. Iyengar, J. Tomasi, 
 M. Cossi, N. Rega, J. M. Millam, M. Klene, J. E. Knox, J. B. Cross, 
 V. Bakken, C. Adamo, J. Jaramillo, R. Gomperts, R. E. Stratmann, 
 O. Yazyev, A. J. Austin, R. Cammi, C. Pomelli, J. W. Ochterski, 
 R. L. Martin, K. Morokuma, V. G. Zakrzewski, G. A. Voth, 
 P. Salvador, J. J. Dannenberg, S. Dapprich, A. D. Daniels, 
 O. Farkas, J. B. Foresman, J. V. Ortiz, J. Cioslowski, 
 and D. J. Fox, Gaussian, Inc., Wallingford CT, 2013.
 
 ******************************************
 Gaussian 09:  AM64L-G09RevD.01 24-Apr-2013
                27-May-2016 
 ******************************************
 %chk=biphendimethyl_ts_b3lyp_631gdp.chk
 %nproc=4
 Will use up to    4 processors via shared memory.
 %mem=32768MB
 ----------------------------------------------------------------------
 # b3lyp/6-31G** gfprint gfinput scf=(direct,tight,maxcycle=300,xqc) fr
 eq=(noraman,readisotopes)
 ----------------------------------------------------------------------
 1/10=4,30=1,38=1,88=2/1,3;
 2/12=2,17=6,18=5,40=1/2;
 3/5=1,6=6,7=101,11=2,16=1,24=110,25=1,30=1,71=2,74=-5,140=1/1,2,3;
 4//1;
 5/5=2,7=300,8=3,13=1,32=2,38=5,98=1/2,8;
 8/6=4,10=90,11=11/1;
 11/6=1,8=1,9=11,15=111,16=1/1,2,10;
 10/6=1/2;
 6/7=2,8=2,9=2,10=2,18=1,28=1/1;
 7/8=1,10=1,25=1/1,2,3,16;
 1/10=4,30=1,88=2/3;
 99//99;
 ----------------------------------
 biphendimethyl_ts_b3lyp_631gdp.log
 ----------------------------------
 Symbolic Z-matrix:
 Charge =  0 Multiplicity = 1
 C                    -2.77687  -1.38331  -0.09121 
 C                    -1.39906  -1.18561  -0.18469 
 C                    -0.77394   0.09884  -0.02771 
 C                    -1.70501   1.19565   0.03119 
 C                    -3.0832    0.9417    0.16185 
 C                    -3.63762  -0.32483   0.13726 
 H                    -3.1633   -2.39283  -0.19786 
 H                    -3.74479   1.79787   0.25343 
 H                    -4.70784  -0.4725    0.2448 
 C                     0.77394   0.09884   0.02771 
 C                     1.70501   1.19565  -0.03119 
 C                     1.39906  -1.1856    0.18469 
 C                     3.0832    0.9417   -0.16186 
 C                     2.77687  -1.38331   0.0912 
 C                     3.63762  -0.32483  -0.13728 
 H                     3.74479   1.79787  -0.25344 
 H                     3.1633   -2.39283   0.19786 
 H                     4.70784  -0.47251  -0.24482 
 C                    -0.59374  -2.42908  -0.46418 
 H                    -0.24187  -2.42871  -1.50652 
 H                    -1.21746  -3.31861  -0.33544 
 C                     0.59374  -2.42908   0.46419 
 H                     0.24187  -2.4287    1.50653 
 H                     1.21746  -3.31861   0.33546 
 C                    -1.4497    2.68277  -0.14524 
 H                    -2.39852   3.17197  -0.37468 
 H                     1.05143   3.17964  -0.74042 
 H                    -0.78875   2.8865   -0.98425 
 C                     1.4497    2.68277   0.14525 
 H                     2.39852   3.17197   0.37469 
 H                    -1.05142   3.17963   0.74043 
 H                     0.78875   2.88649   0.98426 
 

 GradGradGradGradGradGradGradGradGradGradGradGradGradGradGradGradGradGrad
 Berny optimization.
 Initialization pass.
 Trust Radius=3.00D-01 FncErr=1.00D-07 GrdErr=1.00D-07
 Number of steps in this run=      2 maximum allowed number of steps=      2.
 GradGradGradGradGradGradGradGradGradGradGradGradGradGradGradGradGradGrad

                          Input orientation:                          
 ---------------------------------------------------------------------
 Center     Atomic      Atomic             Coordinates (Angstroms)
 Number     Number       Type             X           Y           Z
 ---------------------------------------------------------------------
      1          6           0       -2.776870   -1.383310   -0.091210
      2          6           0       -1.399060   -1.185610   -0.184690
      3          6           0       -0.773940    0.098840   -0.027710
      4          6           0       -1.705010    1.195650    0.031190
      5          6           0       -3.083200    0.941700    0.161850
      6          6           0       -3.637620   -0.324830    0.137260
      7          1           0       -3.163300   -2.392830   -0.197860
      8          1           0       -3.744790    1.797870    0.253430
      9          1           0       -4.707840   -0.472500    0.244800
     10          6           0        0.773940    0.098840    0.027710
     11          6           0        1.705010    1.195650   -0.031190
     12          6           0        1.399060   -1.185600    0.184690
     13          6           0        3.083200    0.941700   -0.161860
     14          6           0        2.776870   -1.383310    0.091200
     15          6           0        3.637620   -0.324830   -0.137280
     16          1           0        3.744790    1.797870   -0.253440
     17          1           0        3.163300   -2.392830    0.197860
     18          1           0        4.707840   -0.472510   -0.244820
     19          6           0       -0.593740   -2.429080   -0.464180
     20          1           0       -0.241870   -2.428710   -1.506520
     21          1           0       -1.217460   -3.318610   -0.335440
     22          6           0        0.593740   -2.429080    0.464190
     23          1           0        0.241870   -2.428700    1.506530
     24          1           0        1.217460   -3.318610    0.335460
     25          6           0       -1.449700    2.682770   -0.145240
     26          1           0       -2.398520    3.171970   -0.374680
     27          1           0        1.051430    3.179640   -0.740420
     28          1           0       -0.788750    2.886500   -0.984250
     29          6           0        1.449700    2.682770    0.145250
     30          1           0        2.398520    3.171970    0.374690
     31          1           0       -1.051420    3.179630    0.740430
     32          1           0        0.788750    2.886490    0.984260
 ---------------------------------------------------------------------
                    Distance matrix (angstroms):
                    1          2          3          4          5
     1  C    0.000000
     2  C    1.395057   0.000000
     3  C    2.492495   1.437091   0.000000
     4  C    2.795514   2.410520   1.439914   0.000000
     5  C    2.358718   2.735300   2.465568   1.407469   0.000000
     6  C    1.383282   2.419865   2.899547   2.461319   1.382781
     7  H    1.086201   2.137778   3.456358   3.880240   3.354832
     8  H    3.342985   3.820412   3.433903   2.138402   1.085871
     9  H    2.161278   3.411893   3.984503   3.441706   2.155527
    10  C    3.849567   2.533151   1.548872   2.710756   3.950435
    11  C    5.171256   3.915254   2.710756   3.410591   4.798824
    12  C    4.189702   2.822396   2.533146   3.915248   4.961510
    13  C    6.304846   4.961514   3.950435   4.798824   6.174891
    14  C    5.556735   4.189701   3.849566   5.171256   6.304846
    15  C    6.501399   5.109925   4.433211   5.557332   6.845655
    16  H    7.257980   5.946854   4.832864   5.490355   6.893979
    17  H    6.032273   4.734855   4.664886   6.050240   7.080900
    18  H    7.541488   6.148687   5.515749   6.632012   7.928788
    19  C    2.449244   1.507605   2.571645   3.823477   4.236919
    20  H    3.085804   2.152120   2.976321   4.200157   4.713415
    21  H    2.497357   2.146018   3.459823   4.555290   4.677448
    22  C    3.572550   2.436907   2.915972   4.313978   4.997345
    23  H    3.571891   2.664235   3.126375   4.370684   4.921773
    24  H    4.458935   3.415614   3.971968   5.386275   6.056076
    25  C    4.277535   3.868913   2.673417   1.519157   2.407063
    26  H    4.579747   4.474765   3.493390   2.133431   2.393900
    27  H    5.991483   5.036779   3.651200   3.482752   4.787236
    28  H    4.793894   4.194503   2.947242   2.174770   3.218741
    29  C    5.869652   4.815460   3.413383   3.489517   4.855799
    30  H    6.910304   5.807153   4.435150   4.567580   5.921880
    31  H    4.948659   4.475715   3.187209   2.205987   3.077534
    32  H    5.665816   4.768119   3.352175   3.160082   4.410279
                    6          7          8          9         10
     6  C    0.000000
     7  H    2.148001   0.000000
     8  H    2.128576   4.254851   0.000000
     9  H    1.085699   2.503841   2.466195   0.000000
    10  C    4.433211   4.664886   4.832864   5.515747   0.000000
    11  C    5.557331   6.050240   5.490355   6.632009   1.439914
    12  C    5.109924   4.734858   5.946849   6.148687   1.437082
    13  C    6.845655   7.080900   6.893979   7.928785   2.465569
    14  C    6.501399   6.032272   7.257980   7.541489   2.492494
    15  C    7.280418   7.108643   7.691455   8.355507   2.899548
    16  H    7.691455   8.080022   7.506712   8.766400   3.433904
    17  H    7.108643   6.338964   8.080022   8.102143   3.456358
    18  H    8.355507   8.102140   8.766404   9.428402   3.984505
    19  C    3.748974   2.583579   5.320826   4.610496   2.915970
    20  H    4.319658   3.201348   5.764707   5.180615   3.126378
    21  H    3.878574   2.159234   5.736945   4.540900   3.971966
    22  C    4.736999   3.815098   6.060888   5.655359   2.571647
    23  H    4.620780   3.808072   5.943704   5.469763   2.976317
    24  H    5.707346   4.509164   7.128045   6.574020   3.459824
    25  C    3.729941   5.357323   2.491872   4.552289   3.413383
    26  H    3.745005   5.619889   2.023639   4.358770   4.435149
    27  H    5.919360   7.007906   5.089278   6.890426   3.187217
    28  H    4.436945   5.841937   3.384544   5.305913   3.352180
    29  C    5.909869   6.867256   5.270434   6.919605   2.673418
    30  H    6.979898   7.888514   6.296278   7.987452   3.493391
    31  H    4.396986   6.032639   3.066051   5.191638   3.651188
    32  H    5.533781   6.699800   4.719342   6.483989   2.947236
                   11         12         13         14         15
    11  C    0.000000
    12  C    2.410511   0.000000
    13  C    1.407470   2.735293   0.000000
    14  C    2.795514   1.395059   2.358718   0.000000
    15  C    2.461320   2.419864   1.382781   1.383284   0.000000
    16  H    2.138403   3.820406   1.085871   3.342985   2.128576
    17  H    3.880240   2.137784   3.354833   1.086202   2.148004
    18  H    3.441712   3.411891   2.155534   2.161275   1.085700
    19  C    4.313977   2.436909   4.997344   3.572547   4.736997
    20  H    4.370689   2.664238   4.921775   3.571885   4.620776
    21  H    5.386274   3.415618   6.056075   4.458933   5.707345
    22  C    3.823479   1.507615   4.236922   2.449247   3.748978
    23  H    4.200152   2.152126   4.713415   3.085810   4.319664
    24  H    4.555291   2.146029   4.677452   2.497360   3.878579
    25  C    3.489517   4.815452   4.855799   5.869651   5.909869
    26  H    4.567580   5.807144   5.921879   6.910303   6.979896
    27  H    2.205990   4.475712   3.077531   4.948661   4.396984
    28  H    3.160085   4.768116   4.410280   5.665820   5.533783
    29  C    1.519158   3.868902   2.407065   4.277535   3.729943
    30  H    2.133433   4.474755   2.393904   4.579748   3.745009
    31  H    3.482740   5.036758   4.787227   5.991471   5.919351
    32  H    2.174767   4.194485   3.218742   4.793889   4.436946
                   16         17         18         19         20
    16  H    0.000000
    17  H    4.254852   0.000000
    18  H    2.466205   2.503837   0.000000
    19  C    6.060888   3.815096   5.655355   0.000000
    20  H    5.943706   3.808068   5.469756   1.100130   0.000000
    21  H    7.128044   4.509161   6.574015   1.094013   1.764972
    22  C    5.320828   2.583580   4.610497   1.507309   2.140547
    23  H    5.764706   3.201352   5.180617   2.140547   3.051635
    24  H    5.736948   2.159235   4.540899   2.170514   2.512858
    25  C    5.270435   6.867256   6.919610   5.192822   5.425787
    26  H    6.296277   7.888513   7.987456   5.885321   6.107358
    27  H    3.066044   6.032643   5.191643   5.851550   5.806300
    28  H    4.719341   6.699807   6.483996   5.344520   5.368734
    29  C    2.491875   5.357323   4.552299   5.538778   5.631783
    30  H    2.023645   5.619889   4.358783   6.405395   6.471339
    31  H    5.089270   7.007893   6.890422   5.754840   6.095706
    32  H    3.384548   5.841929   5.305920   5.680189   5.959657
                   21         22         23         24         25
    21  H    0.000000
    22  C    2.170511   0.000000
    23  H    2.512854   1.100130   0.000000
    24  H    2.525657   1.094012   1.764970   0.000000
    25  C    6.008883   5.538778   5.631774   6.584936   0.000000
    26  H    6.597278   6.405395   6.471330   7.463728   1.091888
    27  H    6.894862   5.754851   6.095707   6.588804   2.618544
    28  H    6.253650   5.680198   5.959657   6.653563   1.087336
    29  C    6.584935   5.192822   5.425778   6.008883   2.913916
    30  H    7.463727   5.885321   6.107348   6.597278   3.913878
    31  H    6.588793   5.851537   5.806279   6.894849   1.090829
    32  H    6.653552   5.344510   5.368714   6.253639   2.515538
                   26         27         28         29         30
    26  H    0.000000
    27  H    3.469291   0.000000
    28  H    1.744829   1.879268   0.000000
    29  C    3.913878   1.090830   2.515539   0.000000
    30  H    4.855219   1.748765   3.476622   1.091888   0.000000
    31  H    1.748773   2.571944   1.769023   2.618532   3.469281
    32  H    3.476623   1.769028   2.522605   1.087334   1.744831
                   31         32
    31  H    0.000000
    32  H    1.879258   0.000000
 Stoichiometry    C16H16
 Framework group  C1[X(C16H16)]
 Deg. of freedom    90
 Full point group                 C1      NOp   1
 Largest Abelian subgroup         C1      NOp   1
 Largest concise Abelian subgroup C1      NOp   1
                         Standard orientation:                         
 ---------------------------------------------------------------------
 Center     Atomic      Atomic             Coordinates (Angstroms)
 Number     Number       Type             X           Y           Z
 ---------------------------------------------------------------------
      1          6           0       -2.776871   -1.383311   -0.091209
      2          6           0       -1.399060   -1.185612   -0.184689
      3          6           0       -0.773940    0.098838   -0.027709
      4          6           0       -1.705010    1.195648    0.031191
      5          6           0       -3.083200    0.941699    0.161851
      6          6           0       -3.637620   -0.324831    0.137261
      7          1           0       -3.163301   -2.392831   -0.197859
      8          1           0       -3.744790    1.797869    0.253431
      9          1           0       -4.707840   -0.472501    0.244801
     10          6           0        0.773940    0.098837    0.027711
     11          6           0        1.705010    1.195647   -0.031189
     12          6           0        1.399060   -1.185603    0.184691
     13          6           0        3.083200    0.941697   -0.161859
     14          6           0        2.776869   -1.383313    0.091201
     15          6           0        3.637620   -0.324833   -0.137279
     16          1           0        3.744790    1.797867   -0.253439
     17          1           0        3.163299   -2.392833    0.197861
     18          1           0        4.707840   -0.472514   -0.244819
     19          6           0       -0.593741   -2.429082   -0.464179
     20          1           0       -0.241871   -2.428712   -1.506519
     21          1           0       -1.217461   -3.318612   -0.335439
     22          6           0        0.593739   -2.429083    0.464191
     23          1           0        0.241869   -2.428702    1.506531
     24          1           0        1.217459   -3.318613    0.335461
     25          6           0       -1.449699    2.682768   -0.145239
     26          1           0       -2.398519    3.171968   -0.374679
     27          1           0        1.051431    3.179637   -0.740419
     28          1           0       -0.788749    2.886498   -0.984249
     29          6           0        1.449701    2.682767    0.145251
     30          1           0        2.398521    3.171967    0.374691
     31          1           0       -1.051419    3.179628    0.740431
     32          1           0        0.788751    2.886487    0.984261
 ---------------------------------------------------------------------
 Rotational constants (GHZ):      0.7914934      0.4737417      0.3033400
 Standard basis: 6-31G(d,p) (6D, 7F)
 AO basis set in the form of general basis input (Overlap normalization):
      1 0
 S   6 1.00       0.000000000000
      0.3047524880D+04  0.1834737132D-02
      0.4573695180D+03  0.1403732281D-01
      0.1039486850D+03  0.6884262226D-01
      0.2921015530D+02  0.2321844432D+00
      0.9286662960D+01  0.4679413484D+00
      0.3163926960D+01  0.3623119853D+00
 SP   3 1.00       0.000000000000
      0.7868272350D+01 -0.1193324198D+00  0.6899906659D-01
      0.1881288540D+01 -0.1608541517D+00  0.3164239610D+00
      0.5442492580D+00  0.1143456438D+01  0.7443082909D+00
 SP   1 1.00       0.000000000000
      0.1687144782D+00  0.1000000000D+01  0.1000000000D+01
 D   1 1.00       0.000000000000
      0.8000000000D+00  0.1000000000D+01
 ****
      2 0
 S   6 1.00       0.000000000000
      0.3047524880D+04  0.1834737132D-02
      0.4573695180D+03  0.1403732281D-01
      0.1039486850D+03  0.6884262226D-01
      0.2921015530D+02  0.2321844432D+00
      0.9286662960D+01  0.4679413484D+00
      0.3163926960D+01  0.3623119853D+00
 SP   3 1.00       0.000000000000
      0.7868272350D+01 -0.1193324198D+00  0.6899906659D-01
      0.1881288540D+01 -0.1608541517D+00  0.3164239610D+00
      0.5442492580D+00  0.1143456438D+01  0.7443082909D+00
 SP   1 1.00       0.000000000000
      0.1687144782D+00  0.1000000000D+01  0.1000000000D+01
 D   1 1.00       0.000000000000
      0.8000000000D+00  0.1000000000D+01
 ****
      3 0
 S   6 1.00       0.000000000000
      0.3047524880D+04  0.1834737132D-02
      0.4573695180D+03  0.1403732281D-01
      0.1039486850D+03  0.6884262226D-01
      0.2921015530D+02  0.2321844432D+00
      0.9286662960D+01  0.4679413484D+00
      0.3163926960D+01  0.3623119853D+00
 SP   3 1.00       0.000000000000
      0.7868272350D+01 -0.1193324198D+00  0.6899906659D-01
      0.1881288540D+01 -0.1608541517D+00  0.3164239610D+00
      0.5442492580D+00  0.1143456438D+01  0.7443082909D+00
 SP   1 1.00       0.000000000000
      0.1687144782D+00  0.1000000000D+01  0.1000000000D+01
 D   1 1.00       0.000000000000
      0.8000000000D+00  0.1000000000D+01
 ****
      4 0
 S   6 1.00       0.000000000000
      0.3047524880D+04  0.1834737132D-02
      0.4573695180D+03  0.1403732281D-01
      0.1039486850D+03  0.6884262226D-01
      0.2921015530D+02  0.2321844432D+00
      0.9286662960D+01  0.4679413484D+00
      0.3163926960D+01  0.3623119853D+00
 SP   3 1.00       0.000000000000
      0.7868272350D+01 -0.1193324198D+00  0.6899906659D-01
      0.1881288540D+01 -0.1608541517D+00  0.3164239610D+00
      0.5442492580D+00  0.1143456438D+01  0.7443082909D+00
 SP   1 1.00       0.000000000000
      0.1687144782D+00  0.1000000000D+01  0.1000000000D+01
 D   1 1.00       0.000000000000
      0.8000000000D+00  0.1000000000D+01
 ****
      5 0
 S   6 1.00       0.000000000000
      0.3047524880D+04  0.1834737132D-02
      0.4573695180D+03  0.1403732281D-01
      0.1039486850D+03  0.6884262226D-01
      0.2921015530D+02  0.2321844432D+00
      0.9286662960D+01  0.4679413484D+00
      0.3163926960D+01  0.3623119853D+00
 SP   3 1.00       0.000000000000
      0.7868272350D+01 -0.1193324198D+00  0.6899906659D-01
      0.1881288540D+01 -0.1608541517D+00  0.3164239610D+00
      0.5442492580D+00  0.1143456438D+01  0.7443082909D+00
 SP   1 1.00       0.000000000000
      0.1687144782D+00  0.1000000000D+01  0.1000000000D+01
 D   1 1.00       0.000000000000
      0.8000000000D+00  0.1000000000D+01
 ****
      6 0
 S   6 1.00       0.000000000000
      0.3047524880D+04  0.1834737132D-02
      0.4573695180D+03  0.1403732281D-01
      0.1039486850D+03  0.6884262226D-01
      0.2921015530D+02  0.2321844432D+00
      0.9286662960D+01  0.4679413484D+00
      0.3163926960D+01  0.3623119853D+00
 SP   3 1.00       0.000000000000
      0.7868272350D+01 -0.1193324198D+00  0.6899906659D-01
      0.1881288540D+01 -0.1608541517D+00  0.3164239610D+00
      0.5442492580D+00  0.1143456438D+01  0.7443082909D+00
 SP   1 1.00       0.000000000000
      0.1687144782D+00  0.1000000000D+01  0.1000000000D+01
 D   1 1.00       0.000000000000
      0.8000000000D+00  0.1000000000D+01
 ****
      7 0
 S   3 1.00       0.000000000000
      0.1873113696D+02  0.3349460434D-01
      0.2825394365D+01  0.2347269535D+00
      0.6401216923D+00  0.8137573261D+00
 S   1 1.00       0.000000000000
      0.1612777588D+00  0.1000000000D+01
 P   1 1.00       0.000000000000
      0.1100000000D+01  0.1000000000D+01
 ****
      8 0
 S   3 1.00       0.000000000000
      0.1873113696D+02  0.3349460434D-01
      0.2825394365D+01  0.2347269535D+00
      0.6401216923D+00  0.8137573261D+00
 S   1 1.00       0.000000000000
      0.1612777588D+00  0.1000000000D+01
 P   1 1.00       0.000000000000
      0.1100000000D+01  0.1000000000D+01
 ****
      9 0
 S   3 1.00       0.000000000000
      0.1873113696D+02  0.3349460434D-01
      0.2825394365D+01  0.2347269535D+00
      0.6401216923D+00  0.8137573261D+00
 S   1 1.00       0.000000000000
      0.1612777588D+00  0.1000000000D+01
 P   1 1.00       0.000000000000
      0.1100000000D+01  0.1000000000D+01
 ****
     10 0
 S   6 1.00       0.000000000000
      0.3047524880D+04  0.1834737132D-02
      0.4573695180D+03  0.1403732281D-01
      0.1039486850D+03  0.6884262226D-01
      0.2921015530D+02  0.2321844432D+00
      0.9286662960D+01  0.4679413484D+00
      0.3163926960D+01  0.3623119853D+00
 SP   3 1.00       0.000000000000
      0.7868272350D+01 -0.1193324198D+00  0.6899906659D-01
      0.1881288540D+01 -0.1608541517D+00  0.3164239610D+00
      0.5442492580D+00  0.1143456438D+01  0.7443082909D+00
 SP   1 1.00       0.000000000000
      0.1687144782D+00  0.1000000000D+01  0.1000000000D+01
 D   1 1.00       0.000000000000
      0.8000000000D+00  0.1000000000D+01
 ****
     11 0
 S   6 1.00       0.000000000000
      0.3047524880D+04  0.1834737132D-02
      0.4573695180D+03  0.1403732281D-01
      0.1039486850D+03  0.6884262226D-01
      0.2921015530D+02  0.2321844432D+00
      0.9286662960D+01  0.4679413484D+00
      0.3163926960D+01  0.3623119853D+00
 SP   3 1.00       0.000000000000
      0.7868272350D+01 -0.1193324198D+00  0.6899906659D-01
      0.1881288540D+01 -0.1608541517D+00  0.3164239610D+00
      0.5442492580D+00  0.1143456438D+01  0.7443082909D+00
 SP   1 1.00       0.000000000000
      0.1687144782D+00  0.1000000000D+01  0.1000000000D+01
 D   1 1.00       0.000000000000
      0.8000000000D+00  0.1000000000D+01
 ****
     12 0
 S   6 1.00       0.000000000000
      0.3047524880D+04  0.1834737132D-02
      0.4573695180D+03  0.1403732281D-01
      0.1039486850D+03  0.6884262226D-01
      0.2921015530D+02  0.2321844432D+00
      0.9286662960D+01  0.4679413484D+00
      0.3163926960D+01  0.3623119853D+00
 SP   3 1.00       0.000000000000
      0.7868272350D+01 -0.1193324198D+00  0.6899906659D-01
      0.1881288540D+01 -0.1608541517D+00  0.3164239610D+00
      0.5442492580D+00  0.1143456438D+01  0.7443082909D+00
 SP   1 1.00       0.000000000000
      0.1687144782D+00  0.1000000000D+01  0.1000000000D+01
 D   1 1.00       0.000000000000
      0.8000000000D+00  0.1000000000D+01
 ****
     13 0
 S   6 1.00       0.000000000000
      0.3047524880D+04  0.1834737132D-02
      0.4573695180D+03  0.1403732281D-01
      0.1039486850D+03  0.6884262226D-01
      0.2921015530D+02  0.2321844432D+00
      0.9286662960D+01  0.4679413484D+00
      0.3163926960D+01  0.3623119853D+00
 SP   3 1.00       0.000000000000
      0.7868272350D+01 -0.1193324198D+00  0.6899906659D-01
      0.1881288540D+01 -0.1608541517D+00  0.3164239610D+00
      0.5442492580D+00  0.1143456438D+01  0.7443082909D+00
 SP   1 1.00       0.000000000000
      0.1687144782D+00  0.1000000000D+01  0.1000000000D+01
 D   1 1.00       0.000000000000
      0.8000000000D+00  0.1000000000D+01
 ****
     14 0
 S   6 1.00       0.000000000000
      0.3047524880D+04  0.1834737132D-02
      0.4573695180D+03  0.1403732281D-01
      0.1039486850D+03  0.6884262226D-01
      0.2921015530D+02  0.2321844432D+00
      0.9286662960D+01  0.4679413484D+00
      0.3163926960D+01  0.3623119853D+00
 SP   3 1.00       0.000000000000
      0.7868272350D+01 -0.1193324198D+00  0.6899906659D-01
      0.1881288540D+01 -0.1608541517D+00  0.3164239610D+00
      0.5442492580D+00  0.1143456438D+01  0.7443082909D+00
 SP   1 1.00       0.000000000000
      0.1687144782D+00  0.1000000000D+01  0.1000000000D+01
 D   1 1.00       0.000000000000
      0.8000000000D+00  0.1000000000D+01
 ****
     15 0
 S   6 1.00       0.000000000000
      0.3047524880D+04  0.1834737132D-02
      0.4573695180D+03  0.1403732281D-01
      0.1039486850D+03  0.6884262226D-01
      0.2921015530D+02  0.2321844432D+00
      0.9286662960D+01  0.4679413484D+00
      0.3163926960D+01  0.3623119853D+00
 SP   3 1.00       0.000000000000
      0.7868272350D+01 -0.1193324198D+00  0.6899906659D-01
      0.1881288540D+01 -0.1608541517D+00  0.3164239610D+00
      0.5442492580D+00  0.1143456438D+01  0.7443082909D+00
 SP   1 1.00       0.000000000000
      0.1687144782D+00  0.1000000000D+01  0.1000000000D+01
 D   1 1.00       0.000000000000
      0.8000000000D+00  0.1000000000D+01
 ****
     16 0
 S   3 1.00       0.000000000000
      0.1873113696D+02  0.3349460434D-01
      0.2825394365D+01  0.2347269535D+00
      0.6401216923D+00  0.8137573261D+00
 S   1 1.00       0.000000000000
      0.1612777588D+00  0.1000000000D+01
 P   1 1.00       0.000000000000
      0.1100000000D+01  0.1000000000D+01
 ****
     17 0
 S   3 1.00       0.000000000000
      0.1873113696D+02  0.3349460434D-01
      0.2825394365D+01  0.2347269535D+00
      0.6401216923D+00  0.8137573261D+00
 S   1 1.00       0.000000000000
      0.1612777588D+00  0.1000000000D+01
 P   1 1.00       0.000000000000
      0.1100000000D+01  0.1000000000D+01
 ****
     18 0
 S   3 1.00       0.000000000000
      0.1873113696D+02  0.3349460434D-01
      0.2825394365D+01  0.2347269535D+00
      0.6401216923D+00  0.8137573261D+00
 S   1 1.00       0.000000000000
      0.1612777588D+00  0.1000000000D+01
 P   1 1.00       0.000000000000
      0.1100000000D+01  0.1000000000D+01
 ****
     19 0
 S   6 1.00       0.000000000000
      0.3047524880D+04  0.1834737132D-02
      0.4573695180D+03  0.1403732281D-01
      0.1039486850D+03  0.6884262226D-01
      0.2921015530D+02  0.2321844432D+00
      0.9286662960D+01  0.4679413484D+00
      0.3163926960D+01  0.3623119853D+00
 SP   3 1.00       0.000000000000
      0.7868272350D+01 -0.1193324198D+00  0.6899906659D-01
      0.1881288540D+01 -0.1608541517D+00  0.3164239610D+00
      0.5442492580D+00  0.1143456438D+01  0.7443082909D+00
 SP   1 1.00       0.000000000000
      0.1687144782D+00  0.1000000000D+01  0.1000000000D+01
 D   1 1.00       0.000000000000
      0.8000000000D+00  0.1000000000D+01
 ****
     20 0
 S   3 1.00       0.000000000000
      0.1873113696D+02  0.3349460434D-01
      0.2825394365D+01  0.2347269535D+00
      0.6401216923D+00  0.8137573261D+00
 S   1 1.00       0.000000000000
      0.1612777588D+00  0.1000000000D+01
 P   1 1.00       0.000000000000
      0.1100000000D+01  0.1000000000D+01
 ****
     21 0
 S   3 1.00       0.000000000000
      0.1873113696D+02  0.3349460434D-01
      0.2825394365D+01  0.2347269535D+00
      0.6401216923D+00  0.8137573261D+00
 S   1 1.00       0.000000000000
      0.1612777588D+00  0.1000000000D+01
 P   1 1.00       0.000000000000
      0.1100000000D+01  0.1000000000D+01
 ****
     22 0
 S   6 1.00       0.000000000000
      0.3047524880D+04  0.1834737132D-02
      0.4573695180D+03  0.1403732281D-01
      0.1039486850D+03  0.6884262226D-01
      0.2921015530D+02  0.2321844432D+00
      0.9286662960D+01  0.4679413484D+00
      0.3163926960D+01  0.3623119853D+00
 SP   3 1.00       0.000000000000
      0.7868272350D+01 -0.1193324198D+00  0.6899906659D-01
      0.1881288540D+01 -0.1608541517D+00  0.3164239610D+00
      0.5442492580D+00  0.1143456438D+01  0.7443082909D+00
 SP   1 1.00       0.000000000000
      0.1687144782D+00  0.1000000000D+01  0.1000000000D+01
 D   1 1.00       0.000000000000
      0.8000000000D+00  0.1000000000D+01
 ****
     23 0
 S   3 1.00       0.000000000000
      0.1873113696D+02  0.3349460434D-01
      0.2825394365D+01  0.2347269535D+00
      0.6401216923D+00  0.8137573261D+00
 S   1 1.00       0.000000000000
      0.1612777588D+00  0.1000000000D+01
 P   1 1.00       0.000000000000
      0.1100000000D+01  0.1000000000D+01
 ****
     24 0
 S   3 1.00       0.000000000000
      0.1873113696D+02  0.3349460434D-01
      0.2825394365D+01  0.2347269535D+00
      0.6401216923D+00  0.8137573261D+00
 S   1 1.00       0.000000000000
      0.1612777588D+00  0.1000000000D+01
 P   1 1.00       0.000000000000
      0.1100000000D+01  0.1000000000D+01
 ****
     25 0
 S   6 1.00       0.000000000000
      0.3047524880D+04  0.1834737132D-02
      0.4573695180D+03  0.1403732281D-01
      0.1039486850D+03  0.6884262226D-01
      0.2921015530D+02  0.2321844432D+00
      0.9286662960D+01  0.4679413484D+00
      0.3163926960D+01  0.3623119853D+00
 SP   3 1.00       0.000000000000
      0.7868272350D+01 -0.1193324198D+00  0.6899906659D-01
      0.1881288540D+01 -0.1608541517D+00  0.3164239610D+00
      0.5442492580D+00  0.1143456438D+01  0.7443082909D+00
 SP   1 1.00       0.000000000000
      0.1687144782D+00  0.1000000000D+01  0.1000000000D+01
 D   1 1.00       0.000000000000
      0.8000000000D+00  0.1000000000D+01
 ****
     26 0
 S   3 1.00       0.000000000000
      0.1873113696D+02  0.3349460434D-01
      0.2825394365D+01  0.2347269535D+00
      0.6401216923D+00  0.8137573261D+00
 S   1 1.00       0.000000000000
      0.1612777588D+00  0.1000000000D+01
 P   1 1.00       0.000000000000
      0.1100000000D+01  0.1000000000D+01
 ****
     27 0
 S   3 1.00       0.000000000000
      0.1873113696D+02  0.3349460434D-01
      0.2825394365D+01  0.2347269535D+00
      0.6401216923D+00  0.8137573261D+00
 S   1 1.00       0.000000000000
      0.1612777588D+00  0.1000000000D+01
 P   1 1.00       0.000000000000
      0.1100000000D+01  0.1000000000D+01
 ****
     28 0
 S   3 1.00       0.000000000000
      0.1873113696D+02  0.3349460434D-01
      0.2825394365D+01  0.2347269535D+00
      0.6401216923D+00  0.8137573261D+00
 S   1 1.00       0.000000000000
      0.1612777588D+00  0.1000000000D+01
 P   1 1.00       0.000000000000
      0.1100000000D+01  0.1000000000D+01
 ****
     29 0
 S   6 1.00       0.000000000000
      0.3047524880D+04  0.1834737132D-02
      0.4573695180D+03  0.1403732281D-01
      0.1039486850D+03  0.6884262226D-01
      0.2921015530D+02  0.2321844432D+00
      0.9286662960D+01  0.4679413484D+00
      0.3163926960D+01  0.3623119853D+00
 SP   3 1.00       0.000000000000
      0.7868272350D+01 -0.1193324198D+00  0.6899906659D-01
      0.1881288540D+01 -0.1608541517D+00  0.3164239610D+00
      0.5442492580D+00  0.1143456438D+01  0.7443082909D+00
 SP   1 1.00       0.000000000000
      0.1687144782D+00  0.1000000000D+01  0.1000000000D+01
 D   1 1.00       0.000000000000
      0.8000000000D+00  0.1000000000D+01
 ****
     30 0
 S   3 1.00       0.000000000000
      0.1873113696D+02  0.3349460434D-01
      0.2825394365D+01  0.2347269535D+00
      0.6401216923D+00  0.8137573261D+00
 S   1 1.00       0.000000000000
      0.1612777588D+00  0.1000000000D+01
 P   1 1.00       0.000000000000
      0.1100000000D+01  0.1000000000D+01
 ****
     31 0
 S   3 1.00       0.000000000000
      0.1873113696D+02  0.3349460434D-01
      0.2825394365D+01  0.2347269535D+00
      0.6401216923D+00  0.8137573261D+00
 S   1 1.00       0.000000000000
      0.1612777588D+00  0.1000000000D+01
 P   1 1.00       0.000000000000
      0.1100000000D+01  0.1000000000D+01
 ****
     32 0
 S   3 1.00       0.000000000000
      0.1873113696D+02  0.3349460434D-01
      0.2825394365D+01  0.2347269535D+00
      0.6401216923D+00  0.8137573261D+00
 S   1 1.00       0.000000000000
      0.1612777588D+00  0.1000000000D+01
 P   1 1.00       0.000000000000
      0.1100000000D+01  0.1000000000D+01
 ****

 AO basis set (Overlap normalization):
 Atom C1       Shell     1 S   6     bf    1 -     1         -5.247524793654         -2.614079801081         -0.172360402051
      0.3047524880D+04  0.1834737132D-02
      0.4573695180D+03  0.1403732281D-01
      0.1039486850D+03  0.6884262226D-01
      0.2921015530D+02  0.2321844432D+00
      0.9286662960D+01  0.4679413484D+00
      0.3163926960D+01  0.3623119853D+00
 Atom C1       Shell     2 SP   3    bf    2 -     5         -5.247524793654         -2.614079801081         -0.172360402051
      0.7868272350D+01 -0.1193324198D+00  0.6899906659D-01
      0.1881288540D+01 -0.1608541517D+00  0.3164239610D+00
      0.5442492580D+00  0.1143456438D+01  0.7443082909D+00
 Atom C1       Shell     3 SP   1    bf    6 -     9         -5.247524793654         -2.614079801081         -0.172360402051
      0.1687144782D+00  0.1000000000D+01  0.1000000000D+01
 Atom C1       Shell     4 D   1     bf   10 -    15         -5.247524793654         -2.614079801081         -0.172360402051
      0.8000000000D+00  0.1000000000D+01
 Atom C2       Shell     5 S   6     bf   16 -    16         -2.643841113553         -2.240481759657         -0.349012000953
      0.3047524880D+04  0.1834737132D-02
      0.4573695180D+03  0.1403732281D-01
      0.1039486850D+03  0.6884262226D-01
      0.2921015530D+02  0.2321844432D+00
      0.9286662960D+01  0.4679413484D+00
      0.3163926960D+01  0.3623119853D+00
 Atom C2       Shell     6 SP   3    bf   17 -    20         -2.643841113553         -2.240481759657         -0.349012000953
      0.7868272350D+01 -0.1193324198D+00  0.6899906659D-01
      0.1881288540D+01 -0.1608541517D+00  0.3164239610D+00
      0.5442492580D+00  0.1143456438D+01  0.7443082909D+00
 Atom C2       Shell     7 SP   1    bf   21 -    24         -2.643841113553         -2.240481759657         -0.349012000953
      0.1687144782D+00  0.1000000000D+01  0.1000000000D+01
 Atom C2       Shell     8 D   1     bf   25 -    30         -2.643841113553         -2.240481759657         -0.349012000953
      0.8000000000D+00  0.1000000000D+01
 Atom C3       Shell     9 S   6     bf   31 -    31         -1.462534753543          0.186776601936         -0.052362792612
      0.3047524880D+04  0.1834737132D-02
      0.4573695180D+03  0.1403732281D-01
      0.1039486850D+03  0.6884262226D-01
      0.2921015530D+02  0.2321844432D+00
      0.9286662960D+01  0.4679413484D+00
      0.3163926960D+01  0.3623119853D+00
 Atom C3       Shell    10 SP   3    bf   32 -    35         -1.462534753543          0.186776601936         -0.052362792612
      0.7868272350D+01 -0.1193324198D+00  0.6899906659D-01
      0.1881288540D+01 -0.1608541517D+00  0.3164239610D+00
      0.5442492580D+00  0.1143456438D+01  0.7443082909D+00
 Atom C3       Shell    11 SP   1    bf   36 -    39         -1.462534753543          0.186776601936         -0.052362792612
      0.1687144782D+00  0.1000000000D+01  0.1000000000D+01
 Atom C3       Shell    12 D   1     bf   40 -    45         -1.462534753543          0.186776601936         -0.052362792612
      0.8000000000D+00  0.1000000000D+01
 Atom C4       Shell    13 S   6     bf   46 -    46         -3.222001415268          2.259447672524          0.058942076615
      0.3047524880D+04  0.1834737132D-02
      0.4573695180D+03  0.1403732281D-01
      0.1039486850D+03  0.6884262226D-01
      0.2921015530D+02  0.2321844432D+00
      0.9286662960D+01  0.4679413484D+00
      0.3163926960D+01  0.3623119853D+00
 Atom C4       Shell    14 SP   3    bf   47 -    50         -3.222001415268          2.259447672524          0.058942076615
      0.7868272350D+01 -0.1193324198D+00  0.6899906659D-01
      0.1881288540D+01 -0.1608541517D+00  0.3164239610D+00
      0.5442492580D+00  0.1143456438D+01  0.7443082909D+00
 Atom C4       Shell    15 SP   1    bf   51 -    54         -3.222001415268          2.259447672524          0.058942076615
      0.1687144782D+00  0.1000000000D+01  0.1000000000D+01
 Atom C4       Shell    16 D   1     bf   55 -    60         -3.222001415268          2.259447672524          0.058942076615
      0.8000000000D+00  0.1000000000D+01
 Atom C5       Shell    17 S   6     bf   61 -    61         -5.826403224575          1.779552536349          0.305853693137
      0.3047524880D+04  0.1834737132D-02
      0.4573695180D+03  0.1403732281D-01
      0.1039486850D+03  0.6884262226D-01
      0.2921015530D+02  0.2321844432D+00
      0.9286662960D+01  0.4679413484D+00
      0.3163926960D+01  0.3623119853D+00
 Atom C5       Shell    18 SP   3    bf   62 -    65         -5.826403224575          1.779552536349          0.305853693137
      0.7868272350D+01 -0.1193324198D+00  0.6899906659D-01
      0.1881288540D+01 -0.1608541517D+00  0.3164239610D+00
      0.5442492580D+00  0.1143456438D+01  0.7443082909D+00
 Atom C5       Shell    19 SP   1    bf   66 -    69         -5.826403224575          1.779552536349          0.305853693137
      0.1687144782D+00  0.1000000000D+01  0.1000000000D+01
 Atom C5       Shell    20 D   1     bf   70 -    75         -5.826403224575          1.779552536349          0.305853693137
      0.8000000000D+00  0.1000000000D+01
 Atom C6       Shell    21 S   6     bf   76 -    76         -6.874105936388         -0.613841974766          0.259385327530
      0.3047524880D+04  0.1834737132D-02
      0.4573695180D+03  0.1403732281D-01
      0.1039486850D+03  0.6884262226D-01
      0.2921015530D+02  0.2321844432D+00
      0.9286662960D+01  0.4679413484D+00
      0.3163926960D+01  0.3623119853D+00
 Atom C6       Shell    22 SP   3    bf   77 -    80         -6.874105936388         -0.613841974766          0.259385327530
      0.7868272350D+01 -0.1193324198D+00  0.6899906659D-01
      0.1881288540D+01 -0.1608541517D+00  0.3164239610D+00
      0.5442492580D+00  0.1143456438D+01  0.7443082909D+00
 Atom C6       Shell    23 SP   1    bf   81 -    84         -6.874105936388         -0.613841974766          0.259385327530
      0.1687144782D+00  0.1000000000D+01  0.1000000000D+01
 Atom C6       Shell    24 D   1     bf   85 -    90         -6.874105936388         -0.613841974766          0.259385327530
      0.8000000000D+00  0.1000000000D+01
 Atom H7       Shell    25 S   3     bf   91 -    91         -5.977772260369         -4.521795898158         -0.373899694123
      0.1873113696D+02  0.3349460434D-01
      0.2825394365D+01  0.2347269535D+00
      0.6401216923D+00  0.8137573261D+00
 Atom H7       Shell    26 S   1     bf   92 -    92         -5.977772260369         -4.521795898158         -0.373899694123
      0.1612777588D+00  0.1000000000D+01
 Atom H7       Shell    27 P   1     bf   93 -    95         -5.977772260369         -4.521795898158         -0.373899694123
      0.1100000000D+01  0.1000000000D+01
 Atom H8       Shell    28 S   3     bf   96 -    96         -7.076626630361          3.397479750907          0.478914812387
      0.1873113696D+02  0.3349460434D-01
      0.2825394365D+01  0.2347269535D+00
      0.6401216923D+00  0.8137573261D+00
 Atom H8       Shell    29 S   1     bf   97 -    97         -7.076626630361          3.397479750907          0.478914812387
      0.1612777588D+00  0.1000000000D+01
 Atom H8       Shell    30 P   1     bf   98 -   100         -7.076626630361          3.397479750907          0.478914812387
      0.1100000000D+01  0.1000000000D+01
 Atom H9       Shell    31 S   3     bf  101 -   101         -8.896528725679         -0.892897199717          0.462606475860
      0.1873113696D+02  0.3349460434D-01
      0.2825394365D+01  0.2347269535D+00
      0.6401216923D+00  0.8137573261D+00
 Atom H9       Shell    32 S   1     bf  102 -   102         -8.896528725679         -0.892897199717          0.462606475860
      0.1612777588D+00  0.1000000000D+01
 Atom H9       Shell    33 P   1     bf  103 -   105         -8.896528725679         -0.892897199717          0.462606475860
      0.1100000000D+01  0.1000000000D+01
 Atom C10      Shell    34 S   6     bf  106 -   106          1.462534533028          0.186775686284          0.052365829672
      0.3047524880D+04  0.1834737132D-02
      0.4573695180D+03  0.1403732281D-01
      0.1039486850D+03  0.6884262226D-01
      0.2921015530D+02  0.2321844432D+00
      0.9286662960D+01  0.4679413484D+00
      0.3163926960D+01  0.3623119853D+00
 Atom C10      Shell    35 SP   3    bf  107 -   110          1.462534533028          0.186775686284          0.052365829672
      0.7868272350D+01 -0.1193324198D+00  0.6899906659D-01
      0.1881288540D+01 -0.1608541517D+00  0.3164239610D+00
      0.5442492580D+00  0.1143456438D+01  0.7443082909D+00
 Atom C10      Shell    36 SP   1    bf  111 -   114          1.462534533028          0.186775686284          0.052365829672
      0.1687144782D+00  0.1000000000D+01  0.1000000000D+01
 Atom C10      Shell    37 D   1     bf  115 -   120          1.462534533028          0.186775686284          0.052365829672
      0.8000000000D+00  0.1000000000D+01
 Atom C11      Shell    38 S   6     bf  121 -   121          3.222002492394          2.259445655317         -0.058939039555
      0.3047524880D+04  0.1834737132D-02
      0.4573695180D+03  0.1403732281D-01
      0.1039486850D+03  0.6884262226D-01
      0.2921015530D+02  0.2321844432D+00
      0.9286662960D+01  0.4679413484D+00
      0.3163926960D+01  0.3623119853D+00
 Atom C11      Shell    39 SP   3    bf  122 -   125          3.222002492394          2.259445655317         -0.058939039555
      0.7868272350D+01 -0.1193324198D+00  0.6899906659D-01
      0.1881288540D+01 -0.1608541517D+00  0.3164239610D+00
      0.5442492580D+00  0.1143456438D+01  0.7443082909D+00
 Atom C11      Shell    40 SP   1    bf  126 -   129          3.222002492394          2.259445655317         -0.058939039555
      0.1687144782D+00  0.1000000000D+01  0.1000000000D+01
 Atom C11      Shell    41 D   1     bf  130 -   135          3.222002492394          2.259445655317         -0.058939039555
      0.8000000000D+00  0.1000000000D+01
 Atom C12      Shell    42 S   6     bf  136 -   136          2.643839373403         -2.240464517631          0.349015038013
      0.3047524880D+04  0.1834737132D-02
      0.4573695180D+03  0.1403732281D-01
      0.1039486850D+03  0.6884262226D-01
      0.2921015530D+02  0.2321844432D+00
      0.9286662960D+01  0.4679413484D+00
      0.3163926960D+01  0.3623119853D+00
 Atom C12      Shell    43 SP   3    bf  137 -   140          2.643839373403         -2.240464517631          0.349015038013
      0.7868272350D+01 -0.1193324198D+00  0.6899906659D-01
      0.1881288540D+01 -0.1608541517D+00  0.3164239610D+00
      0.5442492580D+00  0.1143456438D+01  0.7443082909D+00
 Atom C12      Shell    44 SP   1    bf  141 -   144          2.643839373403         -2.240464517631          0.349015038013
      0.1687144782D+00  0.1000000000D+01  0.1000000000D+01
 Atom C12      Shell    45 D   1     bf  145 -   150          2.643839373403         -2.240464517631          0.349015038013
      0.8000000000D+00  0.1000000000D+01
 Atom C13      Shell    46 S   6     bf  151 -   151          5.826404001251          1.779548888599         -0.305869553339
      0.3047524880D+04  0.1834737132D-02
      0.4573695180D+03  0.1403732281D-01
      0.1039486850D+03  0.6884262226D-01
      0.2921015530D+02  0.2321844432D+00
      0.9286662960D+01  0.4679413484D+00
      0.3163926960D+01  0.3623119853D+00
 Atom C13      Shell    47 SP   3    bf  152 -   155          5.826404001251          1.779548888599         -0.305869553339
      0.7868272350D+01 -0.1193324198D+00  0.6899906659D-01
      0.1881288540D+01 -0.1608541517D+00  0.3164239610D+00
      0.5442492580D+00  0.1143456438D+01  0.7443082909D+00
 Atom C13      Shell    48 SP   1    bf  156 -   159          5.826404001251          1.779548888599         -0.305869553339
      0.1687144782D+00  0.1000000000D+01  0.1000000000D+01
 Atom C13      Shell    49 D   1     bf  160 -   165          5.826404001251          1.779548888599         -0.305869553339
      0.8000000000D+00  0.1000000000D+01
 Atom C14      Shell    50 S   6     bf  166 -   166          5.247522819598         -2.614083086411          0.172344541849
      0.3047524880D+04  0.1834737132D-02
      0.4573695180D+03  0.1403732281D-01
      0.1039486850D+03  0.6884262226D-01
      0.2921015530D+02  0.2321844432D+00
      0.9286662960D+01  0.4679413484D+00
      0.3163926960D+01  0.3623119853D+00
 Atom C14      Shell    51 SP   3    bf  167 -   170          5.247522819598         -2.614083086411          0.172344541849
      0.7868272350D+01 -0.1193324198D+00  0.6899906659D-01
      0.1881288540D+01 -0.1608541517D+00  0.3164239610D+00
      0.5442492580D+00  0.1143456438D+01  0.7443082909D+00
 Atom C14      Shell    52 SP   1    bf  171 -   174          5.247522819598         -2.614083086411          0.172344541849
      0.1687144782D+00  0.1000000000D+01  0.1000000000D+01
 Atom C14      Shell    53 D   1     bf  175 -   180          5.247522819598         -2.614083086411          0.172344541849
      0.8000000000D+00  0.1000000000D+01
 Atom C15      Shell    54 S   6     bf  181 -   181          6.874105214626         -0.613846278453         -0.259420084993
      0.3047524880D+04  0.1834737132D-02
      0.4573695180D+03  0.1403732281D-01
      0.1039486850D+03  0.6884262226D-01
      0.2921015530D+02  0.2321844432D+00
      0.9286662960D+01  0.4679413484D+00
      0.3163926960D+01  0.3623119853D+00
 Atom C15      Shell    55 SP   3    bf  182 -   185          6.874105214626         -0.613846278453         -0.259420084993
      0.7868272350D+01 -0.1193324198D+00  0.6899906659D-01
      0.1881288540D+01 -0.1608541517D+00  0.3164239610D+00
      0.5442492580D+00  0.1143456438D+01  0.7443082909D+00
 Atom C15      Shell    56 SP   1    bf  186 -   189          6.874105214626         -0.613846278453         -0.259420084993
      0.1687144782D+00  0.1000000000D+01  0.1000000000D+01
 Atom C15      Shell    57 D   1     bf  190 -   195          6.874105214626         -0.613846278453         -0.259420084993
      0.8000000000D+00  0.1000000000D+01
 Atom H16      Shell    58 S   3     bf  196 -   196          7.076628419976          3.397475320426         -0.478930672589
      0.1873113696D+02  0.3349460434D-01
      0.2825394365D+01  0.2347269535D+00
      0.6401216923D+00  0.8137573261D+00
 Atom H16      Shell    59 S   1     bf  197 -   197          7.076628419976          3.397475320426         -0.478930672589
      0.1612777588D+00  0.1000000000D+01
 Atom H16      Shell    60 P   1     bf  198 -   200          7.076628419976          3.397475320426         -0.478930672589
      0.1100000000D+01  0.1000000000D+01
 Atom H17      Shell    61 S   3     bf  201 -   201          5.977769091945         -4.521799640675          0.373902731183
      0.1873113696D+02  0.3349460434D-01
      0.2825394365D+01  0.2347269535D+00
      0.6401216923D+00  0.8137573261D+00
 Atom H17      Shell    62 S   1     bf  202 -   202          5.977769091945         -4.521799640675          0.373902731183
      0.1612777588D+00  0.1000000000D+01
 Atom H17      Shell    63 P   1     bf  203 -   205          5.977769091945         -4.521799640675          0.373902731183
      0.1100000000D+01  0.1000000000D+01
 Atom H18      Shell    64 S   3     bf  206 -   206          8.896527829202         -0.892921666849         -0.462641233323
      0.1873113696D+02  0.3349460434D-01
      0.2825394365D+01  0.2347269535D+00
      0.6401216923D+00  0.8137573261D+00
 Atom H18      Shell    65 S   1     bf  207 -   207          8.896527829202         -0.892921666849         -0.462641233323
      0.1612777588D+00  0.1000000000D+01
 Atom H18      Shell    66 P   1     bf  208 -   210          8.896527829202         -0.892921666849         -0.462641233323
      0.1100000000D+01  0.1000000000D+01
 Atom C19      Shell    67 S   6     bf  211 -   211         -1.122007599795         -4.590299990505         -0.877171557833
      0.3047524880D+04  0.1834737132D-02
      0.4573695180D+03  0.1403732281D-01
      0.1039486850D+03  0.6884262226D-01
      0.2921015530D+02  0.2321844432D+00
      0.9286662960D+01  0.4679413484D+00
      0.3163926960D+01  0.3623119853D+00
 Atom C19      Shell    68 SP   3    bf  212 -   215         -1.122007599795         -4.590299990505         -0.877171557833
      0.7868272350D+01 -0.1193324198D+00  0.6899906659D-01
      0.1881288540D+01 -0.1608541517D+00  0.3164239610D+00
      0.5442492580D+00  0.1143456438D+01  0.7443082909D+00
 Atom C19      Shell    69 SP   1    bf  216 -   219         -1.122007599795         -4.590299990505         -0.877171557833
      0.1687144782D+00  0.1000000000D+01  0.1000000000D+01
 Atom C19      Shell    70 D   1     bf  220 -   225         -1.122007599795         -4.590299990505         -0.877171557833
      0.8000000000D+00  0.1000000000D+01
 Atom H20      Shell    71 S   3     bf  226 -   226         -0.457069665198         -4.589600999986         -2.846908695185
      0.1873113696D+02  0.3349460434D-01
      0.2825394365D+01  0.2347269535D+00
      0.6401216923D+00  0.8137573261D+00
 Atom H20      Shell    72 S   1     bf  227 -   227         -0.457069665198         -4.589600999986         -2.846908695185
      0.1612777588D+00  0.1000000000D+01
 Atom H20      Shell    73 P   1     bf  228 -   230         -0.457069665198         -4.589600999986         -2.846908695185
      0.1100000000D+01  0.1000000000D+01
 Atom H21      Shell    74 S   3     bf  231 -   231         -2.300668109602         -6.271267708528         -0.633888215485
      0.1873113696D+02  0.3349460434D-01
      0.2825394365D+01  0.2347269535D+00
      0.6401216923D+00  0.8137573261D+00
 Atom H21      Shell    75 S   1     bf  232 -   232         -2.300668109602         -6.271267708528         -0.633888215485
      0.1612777588D+00  0.1000000000D+01
 Atom H21      Shell    76 P   1     bf  233 -   235         -2.300668109602         -6.271267708528         -0.633888215485
      0.1100000000D+01  0.1000000000D+01
 Atom C22      Shell    77 S   6     bf  236 -   236          1.122004388484         -4.590300692962          0.877193492154
      0.3047524880D+04  0.1834737132D-02
      0.4573695180D+03  0.1403732281D-01
      0.1039486850D+03  0.6884262226D-01
      0.2921015530D+02  0.2321844432D+00
      0.9286662960D+01  0.4679413484D+00
      0.3163926960D+01  0.3623119853D+00
 Atom C22      Shell    78 SP   3    bf  237 -   240          1.122004388484         -4.590300692962          0.877193492154
      0.7868272350D+01 -0.1193324198D+00  0.6899906659D-01
      0.1881288540D+01 -0.1608541517D+00  0.3164239610D+00
      0.5442492580D+00  0.1143456438D+01  0.7443082909D+00
 Atom C22      Shell    79 SP   1    bf  241 -   244          1.122004388484         -4.590300692962          0.877193492154
      0.1687144782D+00  0.1000000000D+01  0.1000000000D+01
 Atom C22      Shell    80 D   1     bf  245 -   250          1.122004388484         -4.590300692962          0.877193492154
      0.8000000000D+00  0.1000000000D+01
 Atom H23      Shell    81 S   3     bf  251 -   251          0.457066454330         -4.589582388882          2.846930629506
      0.1873113696D+02  0.3349460434D-01
      0.2825394365D+01  0.2347269535D+00
      0.6401216923D+00  0.8137573261D+00
 Atom H23      Shell    82 S   1     bf  252 -   252          0.457066454330         -4.589582388882          2.846930629506
      0.1612777588D+00  0.1000000000D+01
 Atom H23      Shell    83 P   1     bf  253 -   255          0.457066454330         -4.589582388882          2.846930629506
      0.1100000000D+01  0.1000000000D+01
 Atom H24      Shell    84 S   3     bf  256 -   256          2.300663845883         -6.271269148911          0.633929047068
      0.1873113696D+02  0.3349460434D-01
      0.2825394365D+01  0.2347269535D+00
      0.6401216923D+00  0.8137573261D+00
 Atom H24      Shell    85 S   1     bf  257 -   257          2.300663845883         -6.271269148911          0.633929047068
      0.1612777588D+00  0.1000000000D+01
 Atom H24      Shell    86 P   1     bf  258 -   260          2.300663845883         -6.271269148911          0.633929047068
      0.1100000000D+01  0.1000000000D+01
 Atom C25      Shell    87 S   6     bf  261 -   261         -2.739534556571          5.069697048231         -0.274462305010
      0.3047524880D+04  0.1834737132D-02
      0.4573695180D+03  0.1403732281D-01
      0.1039486850D+03  0.6884262226D-01
      0.2921015530D+02  0.2321844432D+00
      0.9286662960D+01  0.4679413484D+00
      0.3163926960D+01  0.3623119853D+00
 Atom C25      Shell    88 SP   3    bf  262 -   265         -2.739534556571          5.069697048231         -0.274462305010
      0.7868272350D+01 -0.1193324198D+00  0.6899906659D-01
      0.1881288540D+01 -0.1608541517D+00  0.3164239610D+00
      0.5442492580D+00  0.1143456438D+01  0.7443082909D+00
 Atom C25      Shell    89 SP   1    bf  266 -   269         -2.739534556571          5.069697048231         -0.274462305010
      0.1687144782D+00  0.1000000000D+01  0.1000000000D+01
 Atom C25      Shell    90 D   1     bf  270 -   275         -2.739534556571          5.069697048231         -0.274462305010
      0.8000000000D+00  0.1000000000D+01
 Atom H26      Shell    91 S   3     bf  276 -   276         -4.532544216588          5.994151633716         -0.708041068940
      0.1873113696D+02  0.3349460434D-01
      0.2825394365D+01  0.2347269535D+00
      0.6401216923D+00  0.8137573261D+00
 Atom H26      Shell    92 S   1     bf  277 -   277         -4.532544216588          5.994151633716         -0.708041068940
      0.1612777588D+00  0.1000000000D+01
 Atom H26      Shell    93 P   1     bf  278 -   280         -4.532544216588          5.994151633716         -0.708041068940
      0.1100000000D+01  0.1000000000D+01
 Atom H27      Shell    94 S   3     bf  281 -   281          1.986916460097          6.008643792328         -1.399189504781
      0.1873113696D+02  0.3349460434D-01
      0.2825394365D+01  0.2347269535D+00
      0.6401216923D+00  0.8137573261D+00
 Atom H27      Shell    95 S   1     bf  282 -   282          1.986916460097          6.008643792328         -1.399189504781
      0.1612777588D+00  0.1000000000D+01
 Atom H27      Shell    96 P   1     bf  283 -   285          1.986916460097          6.008643792328         -1.399189504781
      0.1100000000D+01  0.1000000000D+01
 Atom H28      Shell    97 S   3     bf  286 -   286         -1.490519948524          5.454690562297         -1.859961427763
      0.1873113696D+02  0.3349460434D-01
      0.2825394365D+01  0.2347269535D+00
      0.6401216923D+00  0.8137573261D+00
 Atom H28      Shell    98 S   1     bf  287 -   287         -1.490519948524          5.454690562297         -1.859961427763
      0.1612777588D+00  0.1000000000D+01
 Atom H28      Shell    99 P   1     bf  288 -   290         -1.490519948524          5.454690562297         -1.859961427763
      0.1100000000D+01  0.1000000000D+01
 Atom C29      Shell   100 S   6     bf  291 -   291          2.739537393117          5.069695333083          0.274484239332
      0.3047524880D+04  0.1834737132D-02
      0.4573695180D+03  0.1403732281D-01
      0.1039486850D+03  0.6884262226D-01
      0.2921015530D+02  0.2321844432D+00
      0.9286662960D+01  0.4679413484D+00
      0.3163926960D+01  0.3623119853D+00
 Atom C29      Shell   101 SP   3    bf  292 -   295          2.739537393117          5.069695333083          0.274484239332
      0.7868272350D+01 -0.1193324198D+00  0.6899906659D-01
      0.1881288540D+01 -0.1608541517D+00  0.3164239610D+00
      0.5442492580D+00  0.1143456438D+01  0.7443082909D+00
 Atom C29      Shell   102 SP   1    bf  296 -   299          2.739537393117          5.069695333083          0.274484239332
      0.1687144782D+00  0.1000000000D+01  0.1000000000D+01
 Atom C29      Shell   103 D   1     bf  300 -   305          2.739537393117          5.069695333083          0.274484239332
      0.8000000000D+00  0.1000000000D+01
 Atom H30      Shell   104 S   3     bf  306 -   306          4.532547631909          5.994148796014          0.708063003261
      0.1873113696D+02  0.3349460434D-01
      0.2825394365D+01  0.2347269535D+00
      0.6401216923D+00  0.8137573261D+00
 Atom H30      Shell   105 S   1     bf  307 -   307          4.532547631909          5.994148796014          0.708063003261
      0.1612777588D+00  0.1000000000D+01
 Atom H30      Shell   106 P   1     bf  308 -   310          4.532547631909          5.994148796014          0.708063003261
      0.1100000000D+01  0.1000000000D+01
 Atom H31      Shell   107 S   3     bf  311 -   311         -1.986894138447          6.008626139013          1.399211439102
      0.1873113696D+02  0.3349460434D-01
      0.2825394365D+01  0.2347269535D+00
      0.6401216923D+00  0.8137573261D+00
 Atom H31      Shell   108 S   1     bf  312 -   312         -1.986894138447          6.008626139013          1.399211439102
      0.1612777588D+00  0.1000000000D+01
 Atom H31      Shell   109 P   1     bf  313 -   315         -1.986894138447          6.008626139013          1.399211439102
      0.1100000000D+01  0.1000000000D+01
 Atom H32      Shell   110 S   3     bf  316 -   316          1.490523026097          5.454670731861          1.859983362084
      0.1873113696D+02  0.3349460434D-01
      0.2825394365D+01  0.2347269535D+00
      0.6401216923D+00  0.8137573261D+00
 Atom H32      Shell   111 S   1     bf  317 -   317          1.490523026097          5.454670731861          1.859983362084
      0.1612777588D+00  0.1000000000D+01
 Atom H32      Shell   112 P   1     bf  318 -   320          1.490523026097          5.454670731861          1.859983362084
      0.1100000000D+01  0.1000000000D+01
 There are   320 symmetry adapted cartesian basis functions of A   symmetry.
 There are   320 symmetry adapted basis functions of A   symmetry.
   320 basis functions,   560 primitive gaussians,   320 cartesian basis functions
    56 alpha electrons       56 beta electrons
       nuclear repulsion energy      1033.1390028300 Hartrees.
 NAtoms=   32 NActive=   32 NUniq=   32 SFac= 1.00D+00 NAtFMM=   60 NAOKFM=F Big=F
 Integral buffers will be    131072 words long.
 Raffenetti 2 integral format.
 Two-electron integral symmetry is turned on.
 One-electron integrals computed using PRISM.
 NBasis=   320 RedAO= T EigKep=  3.10D-04  NBF=   320
 NBsUse=   320 1.00D-06 EigRej= -1.00D+00 NBFU=   320
 ExpMin= 1.61D-01 ExpMax= 3.05D+03 ExpMxC= 4.57D+02 IAcc=1 IRadAn=         1 AccDes= 0.00D+00
 Harris functional with IExCor=  402 and IRadAn=       1 diagonalized for initial guess.
 HarFok:  IExCor=  402 AccDes= 0.00D+00 IRadAn=         1 IDoV= 1 UseB2=F ITyADJ=14
 ICtDFT=  3500011 ScaDFX=  1.000000  1.000000  1.000000  1.000000
 FoFCou: FMM=F IPFlag=           0 FMFlag=      100000 FMFlg1=           0
         NFxFlg=           0 DoJE=T BraDBF=F KetDBF=T FulRan=T
         wScrn=  0.000000 ICntrl=     500 IOpCl=  0 I1Cent=   200000004 NGrid=           0
         NMat0=    1 NMatS0=      1 NMatT0=    0 NMatD0=    1 NMtDS0=    0 NMtDT0=    0
 Petite list used in FoFCou.
 Keep R1 ints in memory in canonical form, NReq=1335818486.
 Requested convergence on RMS density matrix=1.00D-08 within 128 cycles.
 Requested convergence on MAX density matrix=1.00D-06.
 Requested convergence on             energy=1.00D-06.
 No special actions if energy rises.
 Integral accuracy reduced to 1.0D-05 until final iterations.
 Initial convergence to 1.0D-05 achieved.  Increase integral accuracy.
 SCF Done:  E(RB3LYP) =  -619.345720415     A.U. after   14 cycles
            NFock= 14  Conv=0.78D-08     -V/T= 2.0099
 QCSCF skips out because SCF is already converged.
 DoSCS=F DFT=T ScalE2(SS,OS)=  1.000000  1.000000
 Range of M.O.s used for correlation:     1   320
 NBasis=   320 NAE=    56 NBE=    56 NFC=     0 NFV=     0
 NROrb=    320 NOA=    56 NOB=    56 NVA=   264 NVB=   264
 Symmetrizing basis deriv contribution to polar:
 IMax=3 JMax=2 DiffMx= 0.00D+00
 G2DrvN: will do    33 centers at a time, making    1 passes.
 Calling FoFCou, ICntrl=  3107 FMM=F I1Cent=   0 AccDes= 0.00D+00.
 End of G2Drv F.D. properties file   721 does not exist.
 End of G2Drv F.D. properties file   722 does not exist.
 End of G2Drv F.D. properties file   788 does not exist.
          IDoAtm=11111111111111111111111111111111
          Differentiating once with respect to electric field.
                with respect to dipole field.
          Differentiating once with respect to nuclear coordinates.
 Keep R1 ints in memory in canonical form, NReq=1335498428.
          There are    99 degrees of freedom in the 1st order CPHF.  IDoFFX=6 NUNeed=     3.
     96 vectors produced by pass  0 Test12= 1.49D-14 1.01D-09 XBig12= 3.30D+02 1.30D+01.
 AX will form    96 AO Fock derivatives at one time.
     96 vectors produced by pass  1 Test12= 1.49D-14 1.01D-09 XBig12= 4.75D+01 1.30D+00.
     96 vectors produced by pass  2 Test12= 1.49D-14 1.01D-09 XBig12= 3.36D-01 9.78D-02.
     96 vectors produced by pass  3 Test12= 1.49D-14 1.01D-09 XBig12= 1.00D-03 3.28D-03.
     96 vectors produced by pass  4 Test12= 1.49D-14 1.01D-09 XBig12= 9.08D-07 1.17D-04.
     73 vectors produced by pass  5 Test12= 1.49D-14 1.01D-09 XBig12= 7.06D-10 2.42D-06.
     13 vectors produced by pass  6 Test12= 1.49D-14 1.01D-09 XBig12= 5.04D-13 6.61D-08.
      3 vectors produced by pass  7 Test12= 1.49D-14 1.01D-09 XBig12= 5.89D-16 2.53D-09.
 InvSVY:  IOpt=1 It=  1 EMax= 3.55D-15
 Solved reduced A of dimension   569 with    99 vectors.
 Isotropic polarizability for W=    0.000000      167.26 Bohr**3.
 End of Minotr F.D. properties file   721 does not exist.
 End of Minotr F.D. properties file   722 does not exist.
 End of Minotr F.D. properties file   788 does not exist.

 **********************************************************************

            Population analysis using the SCF density.

 **********************************************************************

 Orbital symmetries:
       Occupied  (A) (A) (A) (A) (A) (A) (A) (A) (A) (A) (A) (A)
                 (A) (A) (A) (A) (A) (A) (A) (A) (A) (A) (A) (A)
                 (A) (A) (A) (A) (A) (A) (A) (A) (A) (A) (A) (A)
                 (A) (A) (A) (A) (A) (A) (A) (A) (A) (A) (A) (A)
                 (A) (A) (A) (A) (A) (A) (A) (A)
       Virtual   (A) (A) (A) (A) (A) (A) (A) (A) (A) (A) (A) (A)
                 (A) (A) (A) (A) (A) (A) (A) (A) (A) (A) (A) (A)
                 (A) (A) (A) (A) (A) (A) (A) (A) (A) (A) (A) (A)
                 (A) (A) (A) (A) (A) (A) (A) (A) (A) (A) (A) (A)
                 (A) (A) (A) (A) (A) (A) (A) (A) (A) (A) (A) (A)
                 (A) (A) (A) (A) (A) (A) (A) (A) (A) (A) (A) (A)
                 (A) (A) (A) (A) (A) (A) (A) (A) (A) (A) (A) (A)
                 (A) (A) (A) (A) (A) (A) (A) (A) (A) (A) (A) (A)
                 (A) (A) (A) (A) (A) (A) (A) (A) (A) (A) (A) (A)
                 (A) (A) (A) (A) (A) (A) (A) (A) (A) (A) (A) (A)
                 (A) (A) (A) (A) (A) (A) (A) (A) (A) (A) (A) (A)
                 (A) (A) (A) (A) (A) (A) (A) (A) (A) (A) (A) (A)
                 (A) (A) (A) (A) (A) (A) (A) (A) (A) (A) (A) (A)
                 (A) (A) (A) (A) (A) (A) (A) (A) (A) (A) (A) (A)
                 (A) (A) (A) (A) (A) (A) (A) (A) (A) (A) (A) (A)
                 (A) (A) (A) (A) (A) (A) (A) (A) (A) (A) (A) (A)
                 (A) (A) (A) (A) (A) (A) (A) (A) (A) (A) (A) (A)
                 (A) (A) (A) (A) (A) (A) (A) (A) (A) (A) (A) (A)
                 (A) (A) (A) (A) (A) (A) (A) (A) (A) (A) (A) (A)
                 (A) (A) (A) (A) (A) (A) (A) (A) (A) (A) (A) (A)
                 (A) (A) (A) (A) (A) (A) (A) (A) (A) (A) (A) (A)
                 (A) (A) (A) (A) (A) (A) (A) (A) (A) (A) (A) (A)
 The electronic state is 1-A.
 Alpha  occ. eigenvalues --  -10.20782 -10.20764 -10.19973 -10.19973 -10.19093
 Alpha  occ. eigenvalues --  -10.19093 -10.18083 -10.18083 -10.18050 -10.18025
 Alpha  occ. eigenvalues --  -10.17720 -10.17720 -10.17708 -10.17708 -10.17617
 Alpha  occ. eigenvalues --  -10.17616  -0.86735  -0.84219  -0.80517  -0.76959
 Alpha  occ. eigenvalues --   -0.76512  -0.72947  -0.72664  -0.68159  -0.66701
 Alpha  occ. eigenvalues --   -0.62577  -0.60882  -0.58082  -0.55752  -0.54269
 Alpha  occ. eigenvalues --   -0.50640  -0.47863  -0.47824  -0.45400  -0.45262
 Alpha  occ. eigenvalues --   -0.43487  -0.42487  -0.42384  -0.40920  -0.40771
 Alpha  occ. eigenvalues --   -0.39722  -0.38545  -0.38111  -0.37387  -0.37063
 Alpha  occ. eigenvalues --   -0.36586  -0.35366  -0.33468  -0.32911  -0.32540
 Alpha  occ. eigenvalues --   -0.31647  -0.30613  -0.27186  -0.23128  -0.22646
 Alpha  occ. eigenvalues --   -0.20868
 Alpha virt. eigenvalues --   -0.03645   0.00325   0.01443   0.03609   0.09402
 Alpha virt. eigenvalues --    0.10337   0.10613   0.12117   0.12196   0.13408
 Alpha virt. eigenvalues --    0.14045   0.14935   0.15797   0.16619   0.16985
 Alpha virt. eigenvalues --    0.17405   0.18965   0.19238   0.20735   0.21255
 Alpha virt. eigenvalues --    0.21596   0.22259   0.23155   0.25484   0.25617
 Alpha virt. eigenvalues --    0.27238   0.28482   0.29466   0.30832   0.32673
 Alpha virt. eigenvalues --    0.34045   0.34421   0.34597   0.37226   0.39635
 Alpha virt. eigenvalues --    0.42269   0.47088   0.49787   0.50462   0.51933
 Alpha virt. eigenvalues --    0.52381   0.53057   0.53268   0.54312   0.54787
 Alpha virt. eigenvalues --    0.55833   0.56420   0.56489   0.57059   0.58151
 Alpha virt. eigenvalues --    0.58829   0.59384   0.60888   0.61015   0.61576
 Alpha virt. eigenvalues --    0.61880   0.62896   0.63636   0.64609   0.65180
 Alpha virt. eigenvalues --    0.66715   0.66990   0.69345   0.69763   0.71399
 Alpha virt. eigenvalues --    0.72698   0.74110   0.74438   0.75928   0.76083
 Alpha virt. eigenvalues --    0.76922   0.78635   0.80157   0.81167   0.81607
 Alpha virt. eigenvalues --    0.82013   0.82840   0.82973   0.83668   0.86649
 Alpha virt. eigenvalues --    0.86680   0.88886   0.89163   0.90252   0.91160
 Alpha virt. eigenvalues --    0.92143   0.92488   0.93126   0.93997   0.94847
 Alpha virt. eigenvalues --    0.96945   0.97348   0.98138   1.00607   1.01263
 Alpha virt. eigenvalues --    1.03059   1.04985   1.08748   1.08971   1.12451
 Alpha virt. eigenvalues --    1.13153   1.14858   1.15335   1.16045   1.18728
 Alpha virt. eigenvalues --    1.20870   1.22450   1.24498   1.26668   1.26858
 Alpha virt. eigenvalues --    1.29622   1.31141   1.32929   1.33480   1.34739
 Alpha virt. eigenvalues --    1.36501   1.37251   1.39785   1.42894   1.44013
 Alpha virt. eigenvalues --    1.44349   1.44948   1.49008   1.51648   1.52364
 Alpha virt. eigenvalues --    1.54534   1.57717   1.64909   1.67663   1.68885
 Alpha virt. eigenvalues --    1.69433   1.73578   1.74816   1.75039   1.76933
 Alpha virt. eigenvalues --    1.78726   1.79389   1.80731   1.83307   1.83673
 Alpha virt. eigenvalues --    1.84652   1.85106   1.87700   1.87769   1.88664
 Alpha virt. eigenvalues --    1.89861   1.92179   1.92367   1.93975   1.95654
 Alpha virt. eigenvalues --    1.96551   1.98594   2.00317   2.01157   2.01605
 Alpha virt. eigenvalues --    2.02629   2.03053   2.03333   2.04477   2.06583
 Alpha virt. eigenvalues --    2.09637   2.10593   2.10765   2.12976   2.13463
 Alpha virt. eigenvalues --    2.13546   2.15069   2.15138   2.17302   2.18513
 Alpha virt. eigenvalues --    2.21103   2.24048   2.24290   2.26134   2.26197
 Alpha virt. eigenvalues --    2.28295   2.28946   2.31354   2.31483   2.34566
 Alpha virt. eigenvalues --    2.34875   2.38510   2.39573   2.40286   2.40557
 Alpha virt. eigenvalues --    2.40813   2.43535   2.44890   2.45608   2.48434
 Alpha virt. eigenvalues --    2.48527   2.50551   2.51211   2.51826   2.52684
 Alpha virt. eigenvalues --    2.53961   2.54334   2.56654   2.58193   2.58799
 Alpha virt. eigenvalues --    2.60427   2.60870   2.61700   2.64055   2.66553
 Alpha virt. eigenvalues --    2.66572   2.67340   2.68738   2.69870   2.72507
 Alpha virt. eigenvalues --    2.72702   2.73367   2.76333   2.78295   2.81906
 Alpha virt. eigenvalues --    2.83779   2.84445   2.85592   2.85715   2.87687
 Alpha virt. eigenvalues --    2.88639   2.89777   2.93431   3.01373   3.03522
 Alpha virt. eigenvalues --    3.06476   3.07210   3.15154   3.17472   3.19457
 Alpha virt. eigenvalues --    3.23224   3.24389   3.26157   3.27784   3.28202
 Alpha virt. eigenvalues --    3.31019   3.31718   3.36034   3.40275   3.41042
 Alpha virt. eigenvalues --    3.46766   3.47650   3.48129   3.49163   3.53165
 Alpha virt. eigenvalues --    3.55437   3.78969   3.81742   4.04984   4.14353
 Alpha virt. eigenvalues --    4.16255   4.17200   4.17670   4.21017   4.34036
 Alpha virt. eigenvalues --    4.36891   4.39539   4.48348   4.49759   4.56496
 Alpha virt. eigenvalues --    4.60803   4.70132   4.78346   4.90464
          Condensed to atoms (all electrons):
               1          2          3          4          5          6
     1  C    4.911142   0.539826  -0.024173  -0.046917  -0.036658   0.508740
     2  C    0.539826   4.877751   0.478752  -0.042126  -0.047327  -0.026861
     3  C   -0.024173   0.478752   4.983238   0.462469  -0.012826  -0.040913
     4  C   -0.046917  -0.042126   0.462469   4.884107   0.529864  -0.028922
     5  C   -0.036658  -0.047327  -0.012826   0.529864   4.905854   0.521684
     6  C    0.508740  -0.026861  -0.040913  -0.028922   0.521684   4.852195
     7  H    0.365369  -0.039506   0.004770   0.000730   0.004985  -0.045409
     8  H    0.005058   0.000882   0.004243  -0.041955   0.367382  -0.042523
     9  H   -0.036192   0.003625   0.001159   0.003961  -0.036427   0.358997
    10  C    0.005950  -0.035651   0.314728  -0.056782   0.006092  -0.000275
    11  C   -0.000106   0.005457  -0.056781  -0.007621   0.000003   0.000006
    12  C    0.001065  -0.034615  -0.035652   0.005458  -0.000074  -0.000021
    13  C    0.000000  -0.000074   0.006091   0.000003  -0.000001   0.000000
    14  C   -0.000002   0.001065   0.005950  -0.000106   0.000000   0.000000
    15  C    0.000000  -0.000021  -0.000275   0.000006   0.000000   0.000000
    16  H    0.000000   0.000001  -0.000120   0.000001   0.000000   0.000000
    17  H    0.000000   0.000015  -0.000150   0.000001   0.000000   0.000000
    18  H    0.000000   0.000000   0.000012   0.000000   0.000000   0.000000
    19  C   -0.050414   0.354407  -0.052847   0.006745   0.000400   0.008124
    20  H   -0.000997  -0.032682  -0.002449  -0.000251   0.000082  -0.000340
    21  H   -0.007869  -0.036569   0.003422  -0.000130  -0.000017   0.000606
    22  C    0.000240  -0.036912  -0.020047  -0.000273   0.000022  -0.000293
    23  H    0.001117  -0.000631   0.001704  -0.000129  -0.000012  -0.000097
    24  H   -0.000150   0.004246   0.000661   0.000016   0.000000   0.000005
    25  C    0.000430   0.005191  -0.051809   0.351312  -0.063733   0.008480
    26  H   -0.000033  -0.000117   0.003534  -0.032311  -0.011120   0.000952
    27  H   -0.000001   0.000021   0.001447  -0.000858  -0.000017   0.000001
    28  H    0.000063  -0.000067  -0.002878  -0.025074   0.000927  -0.000324
    29  C    0.000003  -0.000058  -0.007335  -0.000028  -0.000007   0.000000
    30  H    0.000000   0.000000  -0.000094   0.000055   0.000000   0.000000
    31  H    0.000008  -0.000132  -0.000715  -0.024300  -0.000767  -0.000260
    32  H    0.000000   0.000018   0.002203  -0.001068  -0.000066   0.000002
               7          8          9         10         11         12
     1  C    0.365369   0.005058  -0.036192   0.005950  -0.000106   0.001065
     2  C   -0.039506   0.000882   0.003625  -0.035651   0.005457  -0.034615
     3  C    0.004770   0.004243   0.001159   0.314728  -0.056781  -0.035652
     4  C    0.000730  -0.041955   0.003961  -0.056782  -0.007621   0.005458
     5  C    0.004985   0.367382  -0.036427   0.006092   0.000003  -0.000074
     6  C   -0.045409  -0.042523   0.358997  -0.000275   0.000006  -0.000021
     7  H    0.645986  -0.000253  -0.005188  -0.000150   0.000001   0.000015
     8  H   -0.000253   0.646980  -0.005768  -0.000120   0.000001   0.000001
     9  H   -0.005188  -0.005768   0.633813   0.000012   0.000000   0.000000
    10  C   -0.000150  -0.000120   0.000012   4.983233   0.462471   0.478754
    11  C    0.000001   0.000001   0.000000   0.462471   4.884108  -0.042126
    12  C    0.000015   0.000001   0.000000   0.478754  -0.042126   4.877758
    13  C    0.000000   0.000000   0.000000  -0.012827   0.529865  -0.047328
    14  C    0.000000   0.000000   0.000000  -0.024175  -0.046917   0.539825
    15  C    0.000000   0.000000   0.000000  -0.040913  -0.028922  -0.026861
    16  H    0.000000   0.000000   0.000000   0.004243  -0.041955   0.000882
    17  H    0.000000   0.000000   0.000000   0.004770   0.000730  -0.039505
    18  H    0.000000   0.000000   0.000000   0.001159   0.003961   0.003625
    19  C   -0.014471   0.000005  -0.000218  -0.020047  -0.000273  -0.036912
    20  H    0.000604   0.000000   0.000004   0.001704  -0.000129  -0.000631
    21  H    0.006591   0.000000  -0.000018   0.000661   0.000016   0.004246
    22  C    0.000406   0.000000   0.000002  -0.052847   0.006745   0.354405
    23  H    0.000065   0.000000   0.000001  -0.002448  -0.000251  -0.032683
    24  H   -0.000026   0.000000   0.000000   0.003422  -0.000130  -0.036568
    25  C    0.000011  -0.016883  -0.000243  -0.007335  -0.000028  -0.000058
    26  H    0.000000   0.005989  -0.000036  -0.000094   0.000055   0.000000
    27  H    0.000000  -0.000001   0.000000  -0.000715  -0.024299  -0.000132
    28  H    0.000000   0.000531   0.000003   0.002203  -0.001068   0.000018
    29  C    0.000000  -0.000002   0.000000  -0.051809   0.351312   0.005191
    30  H    0.000000   0.000000   0.000000   0.003534  -0.032311  -0.000117
    31  H    0.000000   0.000841   0.000004   0.001447  -0.000859   0.000021
    32  H    0.000000  -0.000006   0.000000  -0.002878  -0.025074  -0.000067
              13         14         15         16         17         18
     1  C    0.000000  -0.000002   0.000000   0.000000   0.000000   0.000000
     2  C   -0.000074   0.001065  -0.000021   0.000001   0.000015   0.000000
     3  C    0.006091   0.005950  -0.000275  -0.000120  -0.000150   0.000012
     4  C    0.000003  -0.000106   0.000006   0.000001   0.000001   0.000000
     5  C   -0.000001   0.000000   0.000000   0.000000   0.000000   0.000000
     6  C    0.000000   0.000000   0.000000   0.000000   0.000000   0.000000
     7  H    0.000000   0.000000   0.000000   0.000000   0.000000   0.000000
     8  H    0.000000   0.000000   0.000000   0.000000   0.000000   0.000000
     9  H    0.000000   0.000000   0.000000   0.000000   0.000000   0.000000
    10  C   -0.012827  -0.024175  -0.040913   0.004243   0.004770   0.001159
    11  C    0.529865  -0.046917  -0.028922  -0.041955   0.000730   0.003961
    12  C   -0.047328   0.539825  -0.026861   0.000882  -0.039505   0.003625
    13  C    4.905855  -0.036659   0.521684   0.367382   0.004985  -0.036427
    14  C   -0.036659   4.911141   0.508741   0.005058   0.365369  -0.036192
    15  C    0.521684   0.508741   4.852195  -0.042523  -0.045409   0.358997
    16  H    0.367382   0.005058  -0.042523   0.646980  -0.000253  -0.005768
    17  H    0.004985   0.365369  -0.045409  -0.000253   0.645985  -0.005187
    18  H   -0.036427  -0.036192   0.358997  -0.005768  -0.005187   0.633813
    19  C    0.000022   0.000240  -0.000293   0.000000   0.000406   0.000002
    20  H   -0.000012   0.001117  -0.000097   0.000000   0.000065   0.000001
    21  H    0.000000  -0.000150   0.000005   0.000000  -0.000026   0.000000
    22  C    0.000400  -0.050412   0.008124   0.000005  -0.014471  -0.000218
    23  H    0.000082  -0.000997  -0.000340   0.000000   0.000604   0.000004
    24  H   -0.000017  -0.007869   0.000606   0.000000   0.006591  -0.000018
    25  C   -0.000007   0.000003   0.000000  -0.000002   0.000000   0.000000
    26  H    0.000000   0.000000   0.000000   0.000000   0.000000   0.000000
    27  H   -0.000767   0.000008  -0.000260   0.000841   0.000000   0.000004
[...]
 86,0.00005022,-0.00200965,-0.00035590,-0.00207952,0.00376339,-0.001656
 27,-0.00120944,0.00112869,0.00013842,-0.00058260,0.00243349,0.00073387
 ,0.00126117,0.00034833,-0.00013223,-0.00014910,-0.00100882,0.00104680,
 -0.00017061,0.00008549,-0.00065647,-0.00000250,0.00000528,-0.00017586,
 -0.00006323,0.00002704,-0.00008783,0.00005386,-0.00001265,0.00001026,-
 0.00002000,0.00002150,0.00000108,0.00001034,0.00001116,0.00000732,-0.0
 0003673,-0.00003310,0.00000301,0.00003659,0.00001257,0.00000287,-0.000
 02258,0.00000726,-0.00001013,-0.00391869,-0.00020825,-0.00016277,0.000
 06085,0.00000141,0.00012123,0.09444588,0.00007826,0.00010427,0.0000033
 4,-0.00023045,-0.00000234,-0.00008207,0.00017977,0.00012561,0.00051413
 ,-0.00024149,-0.00059827,-0.00000411,-0.00002276,0.00015728,-0.0001857
 5,-0.00010885,0.00007000,0.00006868,-0.00001069,0.00000158,-0.00000098
 ,-0.00008738,0.00002611,-0.00001774,0.00001077,0.00001991,0.00002578,0
 .00093976,-0.00034549,-0.00018980,0.01301085,-0.01352637,0.02445381,0.
 00014644,-0.00013648,-0.00148402,-0.00127680,-0.00201454,-0.00006128,0
 .00035909,-0.00029084,0.00019576,0.00020153,-0.00067891,-0.00122771,0.
 00041375,0.00014954,0.00040756,0.00000821,-0.00000650,0.00008355,0.000
 14844,-0.00021118,0.00001914,0.00006588,0.00002242,0.00007749,0.000021
 01,0.00002122,-0.00000351,-0.00005082,-0.00000630,-0.00001760,0.000069
 81,-0.00001836,-0.00007265,-0.00002972,-0.00002037,0.00001637,-0.00001
 325,-0.00002202,0.00004371,0.00028411,0.00000677,0.00113180,0.00038135
 ,0.00005862,-0.00037170,-0.04968402,0.10629528,-0.00013611,-0.00004411
 ,-0.00001499,0.00018804,0.00005751,0.00001756,-0.00045515,-0.00010708,
 -0.00004252,-0.00030551,0.00039496,0.00002145,0.00002459,-0.00014071,0
 .00019250,0.00002531,-0.00015761,-0.00002937,0.00000465,-0.00001370,-0
 .00000255,0.00006567,-0.00004624,0.00001117,-0.00002022,-0.00002218,-0
 .00002693,-0.00055764,-0.00007373,0.00021405,0.00362678,-0.00125907,0.
 00843056,0.00007802,0.00018561,-0.00012783,0.00046033,-0.00054232,-0.0
 0018170,0.00000928,-0.00015879,0.00002705,0.00014197,0.00030516,-0.000
 33291,0.00018236,0.00016414,-0.00009302,0.00000159,0.00002273,-0.00002
 266,0.00002440,-0.00001367,0.00005334,-0.00003427,-0.00000039,-0.00000
 079,0.00000516,-0.00001636,-0.00000416,0.00002224,-0.00000703,0.000001
 83,-0.00004531,-0.00001041,-0.00004051,0.00000227,0.00001549,-0.000002
 20,0.00002139,0.00001196,0.00001272,-0.00231692,-0.00028932,-0.0011254
 4,-0.00063547,-0.00024826,0.00043862,0.09414984,-0.10561382,0.24329615
 ,0.00033960,0.00013243,-0.00004140,-0.00041293,-0.00061966,-0.00014374
 ,0.00063683,0.00119840,-0.00032669,-0.00243807,-0.00180611,0.00142794,
 -0.00110682,-0.00108584,0.00035080,-0.00005970,-0.00018122,-0.00050355
 ,0.00005539,-0.00009289,0.00010217,0.00059197,-0.00057628,0.00051266,-
 0.00004088,-0.00005760,0.00003218,-0.00004432,-0.00017301,0.00011160,0
 .00009739,0.00062913,0.00043658,0.00022551,-0.00010932,-0.00004554,0.0
 0019777,-0.00036770,-0.00004723,-0.00021384,-0.00013124,0.00002453,0.0
 0000598,0.00024625,-0.00004496,-0.00000078,0.00002508,0.00000188,0.000
 00353,-0.00001620,0.00001132,0.00002264,-0.00001338,0.00000635,0.00001
 254,-0.00000916,0.00001135,0.00003336,-0.00002282,-0.00000925,-0.00001
 439,-0.00001020,-0.00001062,0.00002628,0.00000672,0.00000295,-0.000020
 19,-0.00001533,-0.00000095,0.00000664,-0.00001011,0.00000210,-0.149127
 84,-0.02795285,0.13614056,-0.01678657,-0.00486266,0.02227462,-0.005982
 05,-0.00054317,-0.00174022,0.17194092,0.00028777,-0.00030153,0.0000984
 8,-0.00079052,-0.00012183,-0.00080813,-0.00034707,0.00200171,-0.000104
 72,-0.02136293,-0.00659196,0.02483174,0.00011943,-0.00495863,0.0002176
 9,-0.00110971,0.00040144,-0.00122475,0.00003492,-0.00004037,0.00009123
 ,-0.00027865,0.00009125,0.00057361,-0.00017971,-0.00032551,-0.00003419
 ,-0.00003391,-0.00004195,0.00035788,0.00020123,-0.00042397,0.00029157,
 0.00030654,-0.00019352,-0.00003391,0.00019699,-0.00007829,-0.00009707,
 -0.00020267,0.00001904,-0.00002907,0.00008369,0.00018182,-0.00003762,0
 .00002659,-0.00001051,-0.00001075,0.00000018,0.00000155,0.00000932,0.0
 0000159,0.00001252,0.00002509,-0.00007582,0.00009343,0.00002801,0.0000
 4491,-0.00003352,-0.00002663,0.00000094,0.00001895,0.00001231,0.000008
 51,0.00002430,0.00000161,-0.00001247,0.00001833,-0.00001445,0.00003128
 ,-0.00000088,0.00000998,-0.02828511,-0.05573673,0.03970715,0.00824722,
 0.00230611,-0.01180262,-0.00094945,0.00133671,-0.00002957,0.03478489,0
 .05995975,-0.00058361,0.00037498,0.00003782,0.00048762,0.00050865,0.00
 007363,0.00045939,-0.00066260,0.00071287,0.00023500,0.00027468,-0.0005
 1265,-0.00012840,0.00102923,-0.00015982,-0.00009707,-0.00090933,-0.000
 08432,-0.00001241,0.00000859,0.00000387,-0.00004558,-0.00017265,0.0000
 6607,0.00001313,0.00003591,-0.00000538,0.00019871,0.00003472,-0.000216
 32,-0.00029459,0.00072895,0.00003314,-0.00012656,-0.00004656,-0.000077
 94,0.00009141,-0.00019384,-0.00005023,0.00002499,-0.00014702,0.0000499
 9,-0.00009085,-0.00000073,-0.00000963,-0.00008035,-0.00002507,0.000015
 13,-0.00000444,-0.00001744,0.00000465,0.00002128,-0.00002804,-0.000009
 59,0.00007718,-0.00002520,0.00002838,-0.00001787,0.00002162,0.00001263
 ,-0.00002385,-0.00000288,0.00000061,0.00005072,-0.00001570,0.00000072,
 -0.00000774,-0.00002729,0.00001686,-0.00003111,-0.00000920,-0.00000051
 ,0.13116254,0.03848812,-0.21244949,-0.00507669,-0.00235799,0.00669217,
 -0.00052769,-0.00091798,0.00252115,-0.14540687,-0.04130129,0.22397981,
 0.00012778,-0.00008938,-0.00006402,0.00003811,-0.00018762,0.00004843,0
 .00073102,0.00015064,-0.00020061,0.00011257,0.00053228,-0.00007986,-0.
 00041609,-0.00026508,0.00008218,0.00011714,0.00022623,-0.00000767,0.00
 001277,-0.00000408,-0.00001436,0.00008237,-0.00004843,-0.00000247,-0.0
 0001146,-0.00000223,0.00001498,0.01181735,-0.01510510,-0.00100369,-0.0
 8778218,0.01111140,0.00262283,-0.00310793,-0.00409631,0.00135739,-0.01
 357710,0.03557628,0.00260565,-0.00138670,0.00037454,-0.00021431,-0.004
 26568,0.00003503,0.00012397,-0.00167127,0.00423271,0.00111080,0.000162
 50,0.00004501,0.00002260,-0.00054857,0.00123447,-0.00007377,0.00010070
 ,0.00003860,0.00007796,-0.00000642,0.00000718,-0.00000332,-0.00003185,
 -0.00000190,-0.00001546,0.00084849,-0.00072473,0.00049806,-0.00007425,
 -0.00016233,0.00002773,-0.00020535,-0.00034916,0.00005265,-0.00700505,
 0.00241121,-0.00182100,-0.00129759,-0.00079060,0.00024986,-0.07925646,
 0.04312788,-0.08010862,-0.00532515,-0.00049596,0.00193905,0.59897716,-
 0.00036597,0.00009709,0.00001736,0.00064315,-0.00009971,-0.00005792,0.
 00039690,0.00107753,0.00038638,-0.00008269,0.00008176,0.00077620,0.000
 45760,0.00045619,0.00028428,0.00010986,-0.00050253,-0.00011298,0.00003
 897,0.00001512,-0.00000575,0.00009473,-0.00007124,0.00002155,0.0000020
 4,-0.00001112,-0.00003501,0.00239995,-0.01871966,-0.00216246,0.0293664
 6,-0.19156212,-0.01028405,-0.00320031,0.00103058,-0.00104378,0.0157823
 9,-0.02234684,-0.00547114,0.00038965,-0.00081583,0.00028339,-0.0006063
 2,0.00174467,-0.00203312,-0.00248062,-0.00022278,0.00157815,0.00001804
 ,0.00004908,0.00027242,-0.00010113,0.00011513,0.00025614,0.00002464,0.
 00005891,0.00002956,-0.00003068,0.00001761,-0.00001648,0.00003848,0.00
 001209,0.00000194,0.00046803,-0.00003406,0.00003092,0.00003933,0.00000
 240,0.00000095,-0.00009474,-0.00006991,0.00005659,-0.00241118,0.002910
 94,-0.00219300,-0.00073532,-0.00022419,0.00008615,0.04336073,-0.099519
 12,0.09540763,-0.00076152,0.00021924,0.00112617,-0.00535251,0.47613326
 ,-0.00018683,-0.00003877,0.00009694,0.00018282,0.00012666,-0.00000708,
 -0.00041113,-0.00025559,-0.00236346,0.00061300,-0.00019956,-0.00028250
 ,0.00009435,0.00012589,-0.00009684,0.00015045,-0.00012614,0.00001949,-
 0.00000307,0.00000033,0.00002065,0.00004223,-0.00000835,0.00000554,0.0
 0000068,-0.00000326,0.00001381,0.00117992,0.00316091,0.00080746,0.0051
 0758,-0.01927303,-0.07342323,-0.00005887,0.00038980,0.00592439,0.00426
 910,-0.00548027,0.00764664,-0.00000111,0.00072602,-0.00094930,0.000845
 47,-0.00080424,0.00749687,-0.00119350,-0.00157168,-0.00394135,-0.00014
 786,-0.00022504,-0.00082539,0.00001740,-0.00011390,-0.00000521,-0.0001
 1272,-0.00000078,-0.00006481,-0.00000738,-0.00004778,-0.00000517,0.000
 02655,-0.00000233,0.00000301,0.00017956,0.00027047,0.00043823,-0.00003
 821,-0.00005444,0.00000556,-0.00003020,0.00003868,-0.00015922,-0.00182
 110,0.00219298,0.00191595,-0.00047150,-0.00033337,-0.00122891,-0.08546
 227,0.10011637,-0.22736227,-0.00136663,0.00005641,-0.00064999,-0.00796
 645,-0.01426439,0.56266682,0.00002255,-0.00008661,-0.00002433,-0.00003
 715,0.00002442,0.00002293,-0.00007534,-0.00003068,0.00016533,0.0001930
 1,0.00047401,-0.00005329,-0.00009347,-0.00016468,0.00005707,0.00002541
 ,0.00003767,-0.00000781,-0.00000438,-0.00002440,-0.00000252,0.00004078
 ,-0.00001808,0.00000019,-0.00002416,-0.00001822,0.00000080,-0.00009885
 ,0.00083711,0.00014460,0.00407159,0.00275551,0.00198209,-0.00034289,0.
 00045915,-0.00016007,-0.00203340,0.00635116,0.00144283,0.00042801,0.00
 043062,-0.00009783,0.00080030,-0.00020504,0.00056007,-0.00002580,0.002
 26792,0.00026915,0.00003326,-0.00001498,-0.00014843,0.00003510,-0.0001
 0325,-0.00002514,-0.00001530,-0.00000962,0.00002027,0.00001570,-0.0000
 1393,-0.00000968,-0.00000071,-0.00001586,-0.00000079,-0.00002427,0.000
 01539,-0.00013286,-0.00000236,0.00002656,0.00000068,0.00003540,-0.0000
 1901,0.00000143,-0.00129759,0.00073533,-0.00047149,-0.00047102,-0.0003
 3197,-0.00004198,-0.00989851,-0.00465681,-0.00180526,-0.00025893,-0.00
 008182,0.00072460,-0.25411052,-0.10556829,-0.04941061,0.27983912,-0.00
 002664,0.00002763,-0.00001071,-0.00008051,0.00005863,0.00001102,0.0003
 8776,0.00009402,-0.00007741,-0.00004659,-0.00026565,-0.00000684,0.0000
 6274,0.00008922,-0.00002633,-0.00003692,-0.00002321,0.00001981,-0.0000
 1686,-0.00000414,0.00000322,-0.00004356,0.00003397,-0.00001009,-0.0000
 0237,0.00000720,0.00000091,0.00368106,-0.00338949,-0.00146976,-0.02720
 860,-0.01899353,-0.00621054,-0.00140819,-0.00070790,0.00054424,-0.0028
 5683,-0.00191684,0.00030528,0.00007934,0.00011677,-0.00018737,0.000366
 84,0.00018756,0.00008335,0.00189363,-0.00011778,-0.00085966,0.00008878
 ,0.00005806,-0.00006466,0.00000019,-0.00001270,0.00000527,0.00005456,0
 .00007896,0.00002833,0.00000124,0.00000715,-0.00000334,-0.00000696,-0.
 00001039,-0.00000178,0.00038305,-0.00022619,0.00023188,-0.00002530,-0.
 00004794,0.00001544,-0.00006963,-0.00012719,0.00002533,0.00079060,-0.0
 0022419,0.00033337,0.00033196,0.00015587,-0.00006231,0.01251850,0.0067
 0441,0.00162083,0.00017890,0.00002116,-0.00043848,-0.09942828,-0.09409
 369,-0.02356381,0.10557692,0.11015559,-0.00004827,0.00002162,0.0000038
 1,0.00001337,0.00002555,0.00002582,-0.00001030,0.00001036,-0.00005946,
 -0.00015252,-0.00015753,0.00003079,0.00003546,-0.00001302,0.00001877,-
 0.00002069,-0.00007097,-0.00004402,0.00000015,-0.00000408,0.00000215,0
 .00001130,-0.00000935,0.00002083,-0.00000351,-0.00000441,-0.00000234,0
 .00060457,-0.00052830,0.00054765,-0.00321106,-0.00035639,-0.00129852,-
 0.00028221,0.00014992,0.00040836,-0.00059753,-0.00088474,0.00045926,0.
 00014853,-0.00002548,0.00003212,0.00011064,0.00016368,-0.00017999,0.00
 101355,-0.00049894,0.00044523,0.00003027,0.00004292,0.00000677,-0.0000
 1717,-0.00001102,-0.00009748,-0.00000107,0.00001405,-0.00000115,-0.000
 00110,0.00000009,-0.00000613,0.00000370,-0.00000018,-0.00000045,0.0000
 8620,-0.00006461,-0.00012975,0.00002208,0.00004432,0.00000006,-0.00001
 758,-0.00002634,-0.00000285,0.00024987,-0.00008614,-0.00122890,-0.0000
 4198,0.00006231,0.00066293,-0.02442795,-0.01211090,-0.00517432,-0.0004
 9831,-0.00027730,0.00071148,-0.04810670,-0.02473796,-0.06211888,0.0527
 1242,0.02715855,0.05983722,0.00126115,-0.00034832,-0.00013222,-0.00120
 942,-0.00112867,0.00013842,0.00005020,0.00200965,-0.00035589,-0.002079
 49,-0.00376353,-0.00165624,-0.00058260,-0.00243346,0.00073384,-0.00014
 910,0.00100877,0.00104680,-0.00000249,-0.00000528,-0.00017586,-0.00017
 059,-0.00008550,-0.00065648,-0.00006323,-0.00002704,-0.00008783,-0.000
 08775,0.00013805,-0.00026599,-0.00000178,0.00053082,0.00013729,0.00019
 205,-0.00017676,-0.00002732,0.00031419,-0.00042340,0.00014297,-0.00024
 773,-0.00010448,0.00003810,0.00003046,0.00031486,0.00000809,-0.0000250
 8,0.00002450,-0.00001727,-0.00000287,-0.00001871,-0.00000180,0.0000172
 9,-0.00002106,-0.00003386,-0.00003673,0.00003310,0.00000301,0.00003659
 ,-0.00001257,0.00000287,-0.00002258,-0.00000726,-0.00001013,0.00005386
 ,0.00001265,0.00001026,-0.00002000,-0.00002150,0.00000108,0.00001034,-
 0.00001116,0.00000732,-0.07925823,-0.04336095,-0.08546509,-0.00989823,
 -0.01251837,-0.02442766,0.00012708,0.00000229,0.00039642,0.00715726,0.
 00955253,0.01706412,-0.00391884,0.00020828,-0.00016274,0.00006085,-0.0
 0000142,0.00012123,0.09444756,-0.00035907,-0.00029083,-0.00019577,-0.0
 0014644,-0.00013648,0.00148402,-0.00093976,-0.00034546,0.00018981,-0.0
 1301098,-0.01352624,-0.02445408,0.00127675,-0.00201462,0.00006128,-0.0
 0020155,-0.00067888,0.00122773,-0.00000821,-0.00000650,-0.00008355,-0.
 00041375,0.00014955,-0.00040756,-0.00014845,-0.00021119,-0.00001915,-0
 .00017976,0.00012560,-0.00051413,0.00024150,-0.00059827,0.00000410,0.0
 0023045,-0.00000234,0.00008207,0.00002276,0.00015727,0.00018575,-0.000
 07826,0.00010427,-0.00000334,0.00010884,0.00007000,-0.00006869,0.00008
 738,0.00002611,0.00001774,0.00001069,0.00000158,0.00000098,-0.00001077
 ,0.00001991,-0.00002578,-0.00006981,-0.00001836,0.00007265,0.00002972,
 -0.00002037,-0.00001637,0.00001325,-0.00002202,-0.00004371,-0.00006588
 ,0.00002242,-0.00007750,-0.00002101,0.00002122,0.00000351,0.00005082,-
 0.00000630,0.00001760,-0.04312819,-0.09951752,-0.10011536,0.00465680,0
 .00670434,0.01211115,-0.00000230,0.00010136,0.00026438,0.00249304,0.00
 219607,0.00453159,-0.00028410,0.00000678,-0.00113179,-0.00038135,0.000
 05862,0.00037170,0.04968444,0.10629355,0.00000928,0.00015877,0.0000270
 5,0.00007802,-0.00018560,-0.00012781,-0.00055763,0.00007371,0.00021406
 ,0.00362673,0.00125897,0.00843032,0.00046034,0.00054231,-0.00018170,0.
 00014198,-0.00030515,-0.00033291,0.00000160,-0.00002273,-0.00002266,0.
 00018235,-0.00016413,-0.00009301,0.00002440,0.00001367,0.00005334,-0.0
 0045515,0.00010708,-0.00004252,-0.00030551,-0.00039498,0.00002144,0.00
 018805,-0.00005751,0.00001756,0.00002459,0.00014070,0.00019251,-0.0001
 3611,0.00004411,-0.00001498,0.00002531,0.00015761,-0.00002937,0.000065
 67,0.00004624,0.00001117,0.00000465,0.00001370,-0.00000255,-0.00002022
 ,0.00002218,-0.00002693,-0.00004531,0.00001041,-0.00004050,0.00000227,
 -0.00001549,-0.00000220,0.00002139,-0.00001196,0.00001272,-0.00003427,
 0.00000039,-0.00000079,0.00000516,0.00001636,-0.00000416,0.00002224,0.
 00000703,0.00000183,-0.08011138,-0.09540678,-0.22736361,-0.00180486,-0
 .00162057,-0.00517392,0.00039643,-0.00026436,-0.00068766,-0.01126957,-
 0.01034393,-0.01996676,-0.00231698,0.00028933,-0.00112542,-0.00063548,
 0.00024827,0.00043862,0.09415222,0.10561275,0.24329763,-0.00021383,0.0
 0013124,0.00002453,0.00022551,0.00010932,-0.00004554,-0.00004433,0.000
 17301,0.00011160,0.00009738,-0.00062913,0.00043657,0.00019776,0.000367
 70,-0.00004722,0.00000598,-0.00024625,-0.00004496,0.00000353,0.0000162
 0,0.00001132,-0.00000078,-0.00002508,0.00000188,0.00002264,0.00001338,
 0.00000635,0.00063684,-0.00119840,-0.00032669,-0.00243806,0.00180611,0
 .00142803,-0.00041294,0.00061967,-0.00014374,-0.00110681,0.00108583,0.
 00035082,0.00033961,-0.00013243,-0.00004141,-0.00005971,0.00018122,-0.
 00050353,0.00059197,0.00057628,0.00051265,0.00005539,0.00009289,0.0001
 0217,-0.00004088,0.00005760,0.00003218,0.00002628,-0.00000672,0.000002
 95,-0.00002019,0.00001533,-0.00000095,0.00000664,0.00001011,0.00000210
 ,0.00001254,0.00000916,0.00001135,0.00003336,0.00002282,-0.00000925,-0
 .00001439,0.00001020,-0.00001062,-0.00532522,0.00076153,-0.00136666,-0
 .00025894,-0.00017890,-0.00049831,0.00715728,-0.00249302,-0.01126962,0
 .00047885,0.00027659,0.00000594,-0.14912951,0.02795205,0.13614309,-0.0
 1678644,0.00486259,0.02227460,-0.00598211,0.00054321,-0.00174020,0.171
 94257,0.00020266,0.00001904,0.00002907,-0.00030653,-0.00019352,0.00003
 392,0.00003389,-0.00004194,-0.00035786,-0.00020124,-0.00042396,-0.0002
 9158,-0.00019698,-0.00007829,0.00009706,-0.00008368,0.00018182,0.00003
 761,-0.00000018,0.00000155,-0.00000932,-0.00002659,-0.00001051,0.00001
 075,-0.00000159,0.00001252,-0.00002509,0.00034706,0.00200172,0.0001047
 2,0.02136304,-0.00659191,-0.02483178,0.00079053,-0.00012183,0.00080811
 ,-0.00011939,-0.00495867,-0.00021772,-0.00028778,-0.00030154,-0.000098
 49,0.00110973,0.00040146,0.00122475,0.00027864,0.00009125,-0.00057362,
 -0.00003492,-0.00004037,-0.00009122,0.00017970,-0.00032552,0.00003419,
 -0.00000851,0.00002430,-0.00000161,0.00001247,0.00001833,0.00001445,-0
 .00003128,-0.00000088,-0.00000998,0.00007582,0.00009343,-0.00002801,-0
 .00004491,-0.00003352,0.00002663,-0.00000094,0.00001895,-0.00001230,0.
 00049594,0.00021928,-0.00005639,0.00008181,0.00002115,0.00027729,-0.00
 955280,0.00219601,0.01034397,-0.00027658,-0.00004418,0.00013607,0.0282
 8435,-0.05573559,-0.03970601,-0.00824716,0.00230599,0.01180259,0.00094
 951,0.00133673,0.00002959,-0.03478408,0.05995871,0.00002499,0.00014702
 ,0.00004999,-0.00012656,0.00004656,-0.00007794,0.00019871,-0.00003472,
 -0.00021632,-0.00029459,-0.00072896,0.00003314,0.00009141,0.00019384,-
 0.00005023,-0.00009085,0.00000073,-0.00000963,-0.00000444,0.00001744,0
 .00000465,-0.00008035,0.00002507,0.00001513,0.00002128,0.00002804,-0.0
 0000959,0.00045938,0.00066262,0.00071286,0.00023527,-0.00027471,-0.000
 51287,0.00048763,-0.00050866,0.00007363,-0.00012838,-0.00102930,-0.000
 15981,-0.00058363,-0.00037498,0.00003782,-0.00009705,0.00090935,-0.000
 08431,-0.00004558,0.00017265,0.00006607,-0.00001241,-0.00000859,0.0000
 0388,0.00001313,-0.00003591,-0.00000539,0.00005072,0.00001570,0.000000
 72,-0.00000774,0.00002729,0.00001686,-0.00003111,0.00000920,-0.0000005
 1,0.00007718,0.00002520,0.00002838,-0.00001787,-0.00002162,0.00001263,
 -0.00002385,0.00000288,0.00000061,0.00193905,-0.00112614,-0.00065000,0
 .00072459,0.00043848,0.00071148,0.01706402,-0.00453152,-0.01996636,0.0
 0000593,-0.00013607,-0.00076834,0.13116513,-0.03848705,-0.21245235,-0.
 00507689,0.00235801,0.00669237,-0.00052766,0.00091796,0.00252122,-0.14
 540945,0.04130020,0.22398220\\0.00000103,0.00002125,-0.00002407,0.0001
 0026,-0.00004609,0.00002876,-0.00001136,0.00002349,0.00003252,-0.00004
 730,-0.00009701,0.00001857,0.00000266,0.00007541,-0.00000702,-0.000000
 89,-0.00000015,-0.00000791,-0.00003111,-0.00000708,-0.00000632,0.00000
 377,-0.00000685,0.00000270,0.00000182,-0.00000104,-0.00000049,0.000013
 19,0.00001929,-0.00003238,0.00004597,-0.00009821,-0.00001784,-0.000101
 24,-0.00003457,-0.00002995,-0.00000207,0.00007461,0.00000737,-0.000000
 74,0.00001870,0.00002375,0.00000083,0.00000297,0.00000666,-0.00000366,
 -0.00000699,-0.00000271,0.00003166,-0.00000779,0.00000686,-0.00000103,
 -0.00000225,0.00000087,-0.00012261,0.00004038,-0.00004465,-0.00000536,
 -0.00002981,-0.00001165,-0.00001825,0.00001455,-0.00000216,0.00012138,
 0.00003442,0.00004466,0.00000541,-0.00002982,0.00001173,0.00001785,0.0
 0001468,0.00000290,-0.00001202,0.00003433,-0.00000585,0.00000333,0.000
 02495,0.00000245,-0.00006479,-0.00000512,-0.00004863,0.00002803,-0.000
 03993,0.00002137,0.00001043,0.00003481,0.00000769,-0.00000356,0.000025
 42,-0.00000339,0.00006580,-0.00000578,0.00004808,-0.00002742,-0.000040
 78,-0.00002195\\\@


 IT WAS AN ACT OF DESPARATION. FOR SIX YEARS I HAD STRUGGLED WITH THE
 BLACKBODY THEORY. I KNEW THE PROBLEM WAS FUNDAMENTAL, AND I KNEW
 THE ANSWER. I HAD TO FIND A THEORETICAL EXPLANATION AT ANY COST,
 EXCEPT FOR THE INVIOLABLITY OF THE TWO LAWS OF THERMODYNAMICS.
   -- MAX PLANCK, 1931
 Job cpu time:       0 days  2 hours 37 minutes 33.0 seconds.
 File lengths (MBytes):  RWF=    352 Int=      0 D2E=      0 Chk=      7 Scr=      1
 Normal termination of Gaussian 09 at Sat May 28 00:14:15 2016.
