 Entering Gaussian System, Link 0=g09
 Initial command:
 /export/apps/g09-D.01/l1.exe "/state/partition1/brueckna-biphendimethyl_gs_b3lyp_631gdp-203415/Gau-30621.inp" -scrdir="/state/partition1/brueckna-biphendimethyl_gs_b3lyp_631gdp-203415/"
 Entering Link 1 = /export/apps/g09-D.01/l1.exe PID=     30622.
  
 Copyright (c) 1988,1990,1992,1993,1995,1998,2003,2009,2013,
            Gaussian, Inc.  All Rights Reserved.
  
 This is part of the Gaussian(R) 09 program.  It is based on
 the Gaussian(R) 03 system (copyright 2003, Gaussian, Inc.),
 the Gaussian(R) 98 system (copyright 1998, Gaussian, Inc.),
 the Gaussian(R) 94 system (copyright 1995, Gaussian, Inc.),
 the Gaussian 92(TM) system (copyright 1992, Gaussian, Inc.),
 the Gaussian 90(TM) system (copyright 1990, Gaussian, Inc.),
 the Gaussian 88(TM) system (copyright 1988, Gaussian, Inc.),
 the Gaussian 86(TM) system (copyright 1986, Carnegie Mellon
 University), and the Gaussian 82(TM) system (copyright 1983,
 Carnegie Mellon University). Gaussian is a federally registered
 trademark of Gaussian, Inc.
  
 This software contains proprietary and confidential information,
 including trade secrets, belonging to Gaussian, Inc.
  
 This software is provided under written license and may be
 used, copied, transmitted, or stored only in accord with that
 written license.
  
 The following legend is applicable only to US Government
 contracts under FAR:
  
                    RESTRICTED RIGHTS LEGEND
  
 Use, reproduction and disclosure by the US Government is
 subject to restrictions as set forth in subparagraphs (a)
 and (c) of the Commercial Computer Software - Restricted
 Rights clause in FAR 52.227-19.
  
 Gaussian, Inc.
 340 Quinnipiac St., Bldg. 40, Wallingford CT 06492
  
  
 ---------------------------------------------------------------
 Warning -- This program may not be used in any manner that
 competes with the business of Gaussian, Inc. or will provide
 assistance to any competitor of Gaussian, Inc.  The licensee
 of this program is prohibited from giving any competitor of
 Gaussian, Inc. access to this program.  By using this program,
 the user acknowledges that Gaussian, Inc. is engaged in the
 business of creating and licensing software in the field of
 computational chemistry and represents and warrants to the
 licensee that it is not a competitor of Gaussian, Inc. and that
 it will not use this program in any manner prohibited above.
 ---------------------------------------------------------------
  

 Cite this work as:
 Gaussian 09, Revision D.01,
 M. J. Frisch, G. W. Trucks, H. B. Schlegel, G. E. Scuseria, 
 M. A. Robb, J. R. Cheeseman, G. Scalmani, V. Barone, B. Mennucci, 
 G. A. Petersson, H. Nakatsuji, M. Caricato, X. Li, H. P. Hratchian, 
 A. F. Izmaylov, J. Bloino, G. Zheng, J. L. Sonnenberg, M. Hada, 
 M. Ehara, K. Toyota, R. Fukuda, J. Hasegawa, M. Ishida, T. Nakajima, 
 Y. Honda, O. Kitao, H. Nakai, T. Vreven, J. A. Montgomery, Jr., 
 J. E. Peralta, F. Ogliaro, M. Bearpark, J. J. Heyd, E. Brothers, 
 K. N. Kudin, V. N. Staroverov, T. Keith, R. Kobayashi, J. Normand, 
 K. Raghavachari, A. Rendell, J. C. Burant, S. S. Iyengar, J. Tomasi, 
 M. Cossi, N. Rega, J. M. Millam, M. Klene, J. E. Knox, J. B. Cross, 
 V. Bakken, C. Adamo, J. Jaramillo, R. Gomperts, R. E. Stratmann, 
 O. Yazyev, A. J. Austin, R. Cammi, C. Pomelli, J. W. Ochterski, 
 R. L. Martin, K. Morokuma, V. G. Zakrzewski, G. A. Voth, 
 P. Salvador, J. J. Dannenberg, S. Dapprich, A. D. Daniels, 
 O. Farkas, J. B. Foresman, J. V. Ortiz, J. Cioslowski, 
 and D. J. Fox, Gaussian, Inc., Wallingford CT, 2013.
 
 ******************************************
 Gaussian 09:  AM64L-G09RevD.01 24-Apr-2013
                27-May-2016 
 ******************************************
 %chk=biphendimethyl_gs_b3lyp_631gdp.chk
 %nproc=4
 Will use up to    4 processors via shared memory.
 %mem=32768MB
 ----------------------------------------------------------------------
 # b3lyp/6-31G** gfprint gfinput scf=(direct,tight,maxcycle=300,xqc) fr
 eq=(noraman,readisotopes)
 ----------------------------------------------------------------------
 1/10=4,30=1,38=1,88=2/1,3;
 2/12=2,17=6,18=5,40=1/2;
 3/5=1,6=6,7=101,11=2,16=1,24=110,25=1,30=1,71=2,74=-5,140=1/1,2,3;
 4//1;
 5/5=2,7=300,8=3,13=1,32=2,38=5,98=1/2,8;
 8/6=4,10=90,11=11/1;
 11/6=1,8=1,9=11,15=111,16=1/1,2,10;
 10/6=1/2;
 6/7=2,8=2,9=2,10=2,18=1,28=1/1;
 7/8=1,10=1,25=1/1,2,3,16;
 1/10=4,30=1,88=2/3;
 99//99;
 ----------------------------------
 biphendimethyl_gs_b3lyp_631gdp.log
 ----------------------------------
 Symbolic Z-matrix:
 Charge =  0 Multiplicity = 1
 C                    -2.77195   1.21545   0.51414 
 C                    -1.38622   1.15544   0.39483 
 C                    -0.74709  -0.0496    0.00154 
 C                    -1.54926  -1.12831  -0.44135 
 C                    -2.94367  -1.03577  -0.30621 
 C                    -3.55505   0.1044    0.19998 
 H                    -3.24049   2.14413   0.82981 
 H                    -3.55497  -1.87237  -0.63627 
 H                    -4.63597   0.14908   0.29743 
 C                     0.74709  -0.0496   -0.00154 
 C                     1.54926  -1.12831   0.44135 
 C                     1.38622   1.15544  -0.39483 
 C                     2.94367  -1.03577   0.30621 
 C                     2.77195   1.21545  -0.51414 
 C                     3.55505   0.1044   -0.19998 
 H                     3.55497  -1.87237   0.63627 
 H                     3.24049   2.14413  -0.82981 
 H                     4.63597   0.14908  -0.29743 
 C                    -0.53039   2.39175   0.55719 
 H                    -0.02233   2.40322   1.53194 
 H                    -1.15646   3.28842   0.50749 
 C                     0.53039   2.39175  -0.55719 
 H                     0.02233   2.40322  -1.53194 
 H                     1.15646   3.28842  -0.50749 
 C                    -1.00067  -2.34149  -1.16277 
 H                    -1.61793  -2.55241  -2.04214 
 H                    -0.02502  -2.18947   1.5024 
 H                    -1.01819  -3.24186  -0.53918 
 C                     1.00067  -2.34149   1.16277 
 H                     1.61793  -2.55241   2.04215 
 H                     0.02502  -2.18947  -1.5024 
 H                     1.01819  -3.24186   0.53918 
 

 GradGradGradGradGradGradGradGradGradGradGradGradGradGradGradGradGradGrad
 Berny optimization.
 Initialization pass.
 Trust Radius=3.00D-01 FncErr=1.00D-07 GrdErr=1.00D-07
 Number of steps in this run=      2 maximum allowed number of steps=      2.
 GradGradGradGradGradGradGradGradGradGradGradGradGradGradGradGradGradGrad

                          Input orientation:                          
 ---------------------------------------------------------------------
 Center     Atomic      Atomic             Coordinates (Angstroms)
 Number     Number       Type             X           Y           Z
 ---------------------------------------------------------------------
      1          6           0       -2.771950    1.215450    0.514140
      2          6           0       -1.386220    1.155440    0.394830
      3          6           0       -0.747090   -0.049600    0.001540
      4          6           0       -1.549260   -1.128310   -0.441350
      5          6           0       -2.943670   -1.035770   -0.306210
      6          6           0       -3.555050    0.104400    0.199980
      7          1           0       -3.240490    2.144130    0.829810
      8          1           0       -3.554970   -1.872370   -0.636270
      9          1           0       -4.635970    0.149080    0.297430
     10          6           0        0.747090   -0.049600   -0.001540
     11          6           0        1.549260   -1.128310    0.441350
     12          6           0        1.386220    1.155440   -0.394830
     13          6           0        2.943670   -1.035770    0.306210
     14          6           0        2.771950    1.215450   -0.514140
     15          6           0        3.555050    0.104400   -0.199980
     16          1           0        3.554970   -1.872370    0.636270
     17          1           0        3.240490    2.144130   -0.829810
     18          1           0        4.635970    0.149080   -0.297430
     19          6           0       -0.530390    2.391750    0.557190
     20          1           0       -0.022330    2.403220    1.531940
     21          1           0       -1.156460    3.288420    0.507490
     22          6           0        0.530390    2.391750   -0.557190
     23          1           0        0.022330    2.403220   -1.531940
     24          1           0        1.156460    3.288420   -0.507490
     25          6           0       -1.000670   -2.341490   -1.162770
     26          1           0       -1.617930   -2.552410   -2.042140
     27          1           0       -0.025020   -2.189470    1.502400
     28          1           0       -1.018190   -3.241860   -0.539180
     29          6           0        1.000670   -2.341490    1.162770
     30          1           0        1.617930   -2.552410    2.042150
     31          1           0        0.025020   -2.189470   -1.502400
     32          1           0        1.018190   -3.241860    0.539180
 ---------------------------------------------------------------------
                    Distance matrix (angstroms):
                    1          2          3          4          5
     1  C    0.000000
     2  C    1.392151   0.000000
     3  C    2.441960   1.419608   0.000000
     4  C    2.810897   2.437477   1.415360   0.000000
     5  C    2.402177   2.778220   2.427386   1.403996   0.000000
     6  C    1.395125   2.417949   2.819173   2.440097   1.389245
     7  H    1.087025   2.145934   3.422795   3.896790   3.389750
     8  H    3.386915   3.864489   3.407856   2.148137   1.087441
     9  H    2.158397   3.403399   3.905178   3.421301   2.152238
    10  C    3.774907   2.481984   1.494183   2.574931   3.832371
    11  C    4.916438   3.719505   2.574931   3.221798   4.555637
    12  C    4.256783   2.882705   2.481984   3.719505   4.853576
    13  C    6.146506   4.853576   3.832371   4.555637   5.919107
    14  C    5.638456   4.256783   3.774907   4.916438   6.146506
    15  C    6.463384   5.086711   4.309610   5.256597   6.598836
    16  H    7.041269   5.800111   4.715198   5.269540   6.619705
    17  H    6.230416   4.887095   4.626488   5.813903   6.973504
    18  H    7.528152   6.144815   5.395015   6.317397   7.671694
    19  C    2.531823   1.512372   2.513145   3.798158   4.279868
    20  H    3.163404   2.170293   2.980558   4.324014   4.872338
    21  H    2.628128   2.148275   3.400874   4.534544   4.749194
    22  C    3.665635   2.471477   2.811463   4.090133   4.886714
    23  H    3.661317   2.693216   2.993308   4.016340   4.703852
    24  H    4.557778   3.439332   3.876208   5.180039   5.962399
    25  C    4.312920   3.847504   2.583153   1.514333   2.492759
    26  H    4.697137   4.443047   3.346498   2.143666   2.659180
    27  H    4.485060   3.777301   2.711643   2.688407   3.622238
    28  H    4.904362   4.510440   3.249061   2.181444   2.937445
    29  C    5.225438   4.302964   3.107391   3.247638   4.406884
    30  H    5.983530   5.048439   4.002682   4.269300   5.350064
    31  H    4.845921   4.096279   2.727092   2.174913   3.402207
    32  H    5.850932   5.013808   3.687248   3.467035   4.612792
                    6          7          8          9         10
     6  C    0.000000
     7  H    2.157807   0.000000
     8  H    2.146377   4.287256   0.000000
     9  H    1.086223   2.492191   2.475200   0.000000
    10  C    4.309610   4.626488   4.715198   5.395015   0.000000
    11  C    5.256597   5.813903   5.269540   6.317397   1.415360
    12  C    5.086711   4.887095   5.800111   6.144815   1.419608
    13  C    6.598836   6.973504   6.619705   7.671694   2.427386
    14  C    6.463384   6.230416   7.041269   7.528152   2.441960
    15  C    7.121340   7.169402   7.392588   8.206231   2.819173
    16  H    7.392588   7.896075   7.222922   8.443493   3.407856
    17  H    7.169402   6.690100   7.896075   8.203019   3.422795
    18  H    8.206231   8.203019   8.443493   9.291003   3.905178
    19  C    3.808955   2.735010   5.362383   4.685385   2.811463
    20  H    4.420272   3.304038   5.954943   5.281178   2.993308
    21  H    3.998222   2.399265   5.804721   4.691116   3.876208
    22  C    4.743005   4.025496   5.905856   5.696597   2.513145
    23  H    4.591489   4.036209   5.646235   5.488852   2.980558
    24  H    5.730342   4.736131   6.989128   6.637439   3.400874
    25  C    3.790029   5.395179   2.649854   4.642255   3.107391
    26  H    3.979721   5.739189   2.488182   4.677628   4.002677
    27  H    4.406728   5.437988   4.139445   5.308637   2.727092
    28  H    4.263739   5.985118   2.884473   5.028591   3.687248
    29  C    5.259651   6.182159   4.920414   6.222818   2.583153
    30  H    6.100160   6.865239   5.864749   7.032308   3.346504
    31  H    4.580048   5.906170   3.696899   5.516614   2.711643
    32  H    5.676886   6.872387   4.916399   6.597457   3.249061
                   11         12         13         14         15
    11  C    0.000000
    12  C    2.437477   0.000000
    13  C    1.403996   2.778220   0.000000
    14  C    2.810897   1.392151   2.402177   0.000000
    15  C    2.440097   2.417949   1.389245   1.395125   0.000000
    16  H    2.148137   3.864489   1.087441   3.386915   2.146377
    17  H    3.896790   2.145934   3.389750   1.087025   2.157807
    18  H    3.421301   3.403399   2.152238   2.158397   1.086223
    19  C    4.090133   2.471477   4.886714   3.665635   4.743005
    20  H    4.016340   2.693216   4.703852   3.661317   4.591489
    21  H    5.180039   3.439332   5.962399   4.557778   5.730342
    22  C    3.798158   1.512372   4.279868   2.531823   3.808955
    23  H    4.324014   2.170293   4.872338   3.163404   4.420272
    24  H    4.534544   2.148275   4.749194   2.628128   3.998222
    25  C    3.247638   4.302964   4.406884   5.225438   5.259651
    26  H    4.269295   5.048435   5.350060   5.983527   6.100157
    27  H    2.174913   4.096279   3.402207   4.845921   4.580048
    28  H    3.467035   5.013808   4.612792   5.850932   5.676886
    29  C    1.514333   3.847504   2.492759   4.312920   3.790029
    30  H    2.143674   4.443052   2.659186   4.697143   3.979726
    31  H    2.688407   3.777301   3.622238   4.485060   4.406728
    32  H    2.181444   4.510440   2.937445   4.904362   4.263739
                   16         17         18         19         20
    16  H    0.000000
    17  H    4.287256   0.000000
    18  H    2.475200   2.492191   0.000000
    19  C    5.905856   4.025496   5.696597   0.000000
    20  H    5.646235   4.036209   5.488852   1.099270   0.000000
    21  H    6.989128   4.736131   6.637439   1.094738   1.766162
    22  C    5.362383   2.735010   4.685385   1.538537   2.161040
    23  H    5.954943   3.304038   5.281178   2.161040   3.064205
    24  H    5.804721   2.399265   4.691116   2.187012   2.516426
    25  C    4.920414   6.182159   6.222818   5.057963   5.543544
    26  H    5.864745   6.865237   7.032306   5.690692   6.314923
    27  H    3.696899   5.906170   5.516614   4.704933   4.592786
    28  H    4.916399   6.872387   6.597457   5.759995   6.094933
    29  C    2.649854   5.395179   4.642255   5.011430   4.867760
    30  H    2.488187   5.739194   4.677633   5.591521   5.244906
    31  H    4.139445   5.437988   5.308637   5.053510   5.504749
    32  H    2.884473   5.985118   5.028591   5.842601   5.825391
                   21         22         23         24         25
    21  H    0.000000
    22  C    2.187012   0.000000
    23  H    2.516426   1.099270   0.000000
    24  H    2.525823   1.094738   1.766162   0.000000
    25  C    5.874515   5.011430   4.867760   6.064527   0.000000
    26  H    6.389747   5.591518   5.244905   6.645877   1.094892
    27  H    5.681310   5.053510   5.504749   5.953388   2.842206
    28  H    6.615073   5.842601   5.825391   6.882926   1.095371
    29  C    6.064527   5.057963   5.543544   5.874515   3.068142
    30  H    6.645880   5.690697   6.314929   6.389751   4.144040
    31  H    5.953388   4.704933   4.592786   5.681310   1.091100
    32  H    6.882926   5.759995   6.094933   6.615073   2.789820
                   26         27         28         29         30
    26  H    0.000000
    27  H    3.902929   0.000000
    28  H    1.758954   2.502391   0.000000
    29  C    4.144032   1.091100   2.789820   0.000000
    30  H    5.210779   1.767014   3.753363   1.094900   0.000000
    31  H    1.767011   3.005217   1.767372   2.842206   3.902938
    32  H    3.753356   1.767372   2.304279   1.095371   1.758962
                   31         32
    31  H    0.000000
    32  H    2.502391   0.000000
 Stoichiometry    C16H16
 Framework group  C1[X(C16H16)]
 Deg. of freedom    90
 Full point group                 C1      NOp   1
 Largest Abelian subgroup         C1      NOp   1
 Largest concise Abelian subgroup C1      NOp   1
                         Standard orientation:                         
 ---------------------------------------------------------------------
 Center     Atomic      Atomic             Coordinates (Angstroms)
 Number     Number       Type             X           Y           Z
 ---------------------------------------------------------------------
      1          6           0       -2.771950    1.215451    0.514140
      2          6           0       -1.386220    1.155441    0.394830
      3          6           0       -0.747090   -0.049599    0.001540
      4          6           0       -1.549260   -1.128309   -0.441350
      5          6           0       -2.943670   -1.035769   -0.306210
      6          6           0       -3.555050    0.104401    0.199980
      7          1           0       -3.240490    2.144131    0.829810
      8          1           0       -3.554970   -1.872369   -0.636270
      9          1           0       -4.635970    0.149081    0.297430
     10          6           0        0.747090   -0.049599   -0.001540
     11          6           0        1.549260   -1.128309    0.441350
     12          6           0        1.386220    1.155441   -0.394830
     13          6           0        2.943670   -1.035769    0.306210
     14          6           0        2.771950    1.215451   -0.514140
     15          6           0        3.555050    0.104401   -0.199980
     16          1           0        3.554970   -1.872369    0.636270
     17          1           0        3.240490    2.144131   -0.829810
     18          1           0        4.635970    0.149081   -0.297430
     19          6           0       -0.530390    2.391751    0.557190
     20          1           0       -0.022330    2.403221    1.531940
     21          1           0       -1.156460    3.288421    0.507490
     22          6           0        0.530390    2.391751   -0.557190
     23          1           0        0.022330    2.403221   -1.531940
     24          1           0        1.156460    3.288421   -0.507490
     25          6           0       -1.000670   -2.341489   -1.162770
     26          1           0       -1.617930   -2.552409   -2.042140
     27          1           0       -0.025020   -2.189469    1.502400
     28          1           0       -1.018190   -3.241859   -0.539180
     29          6           0        1.000670   -2.341489    1.162770
     30          1           0        1.617930   -2.552409    2.042150
     31          1           0        0.025020   -2.189469   -1.502400
     32          1           0        1.018190   -3.241859    0.539180
 ---------------------------------------------------------------------
 Rotational constants (GHZ):      0.8118277      0.4842918      0.3412443
 Standard basis: 6-31G(d,p) (6D, 7F)
 AO basis set in the form of general basis input (Overlap normalization):
      1 0
 S   6 1.00       0.000000000000
      0.3047524880D+04  0.1834737132D-02
      0.4573695180D+03  0.1403732281D-01
      0.1039486850D+03  0.6884262226D-01
      0.2921015530D+02  0.2321844432D+00
      0.9286662960D+01  0.4679413484D+00
      0.3163926960D+01  0.3623119853D+00
 SP   3 1.00       0.000000000000
      0.7868272350D+01 -0.1193324198D+00  0.6899906659D-01
      0.1881288540D+01 -0.1608541517D+00  0.3164239610D+00
      0.5442492580D+00  0.1143456438D+01  0.7443082909D+00
 SP   1 1.00       0.000000000000
      0.1687144782D+00  0.1000000000D+01  0.1000000000D+01
 D   1 1.00       0.000000000000
      0.8000000000D+00  0.1000000000D+01
 ****
      2 0
 S   6 1.00       0.000000000000
      0.3047524880D+04  0.1834737132D-02
      0.4573695180D+03  0.1403732281D-01
      0.1039486850D+03  0.6884262226D-01
      0.2921015530D+02  0.2321844432D+00
      0.9286662960D+01  0.4679413484D+00
      0.3163926960D+01  0.3623119853D+00
 SP   3 1.00       0.000000000000
      0.7868272350D+01 -0.1193324198D+00  0.6899906659D-01
      0.1881288540D+01 -0.1608541517D+00  0.3164239610D+00
      0.5442492580D+00  0.1143456438D+01  0.7443082909D+00
 SP   1 1.00       0.000000000000
      0.1687144782D+00  0.1000000000D+01  0.1000000000D+01
 D   1 1.00       0.000000000000
      0.8000000000D+00  0.1000000000D+01
 ****
      3 0
 S   6 1.00       0.000000000000
      0.3047524880D+04  0.1834737132D-02
      0.4573695180D+03  0.1403732281D-01
      0.1039486850D+03  0.6884262226D-01
      0.2921015530D+02  0.2321844432D+00
      0.9286662960D+01  0.4679413484D+00
      0.3163926960D+01  0.3623119853D+00
 SP   3 1.00       0.000000000000
      0.7868272350D+01 -0.1193324198D+00  0.6899906659D-01
      0.1881288540D+01 -0.1608541517D+00  0.3164239610D+00
      0.5442492580D+00  0.1143456438D+01  0.7443082909D+00
 SP   1 1.00       0.000000000000
      0.1687144782D+00  0.1000000000D+01  0.1000000000D+01
 D   1 1.00       0.000000000000
      0.8000000000D+00  0.1000000000D+01
 ****
      4 0
 S   6 1.00       0.000000000000
      0.3047524880D+04  0.1834737132D-02
      0.4573695180D+03  0.1403732281D-01
      0.1039486850D+03  0.6884262226D-01
      0.2921015530D+02  0.2321844432D+00
      0.9286662960D+01  0.4679413484D+00
      0.3163926960D+01  0.3623119853D+00
 SP   3 1.00       0.000000000000
      0.7868272350D+01 -0.1193324198D+00  0.6899906659D-01
      0.1881288540D+01 -0.1608541517D+00  0.3164239610D+00
      0.5442492580D+00  0.1143456438D+01  0.7443082909D+00
 SP   1 1.00       0.000000000000
      0.1687144782D+00  0.1000000000D+01  0.1000000000D+01
 D   1 1.00       0.000000000000
      0.8000000000D+00  0.1000000000D+01
 ****
      5 0
 S   6 1.00       0.000000000000
      0.3047524880D+04  0.1834737132D-02
      0.4573695180D+03  0.1403732281D-01
      0.1039486850D+03  0.6884262226D-01
      0.2921015530D+02  0.2321844432D+00
      0.9286662960D+01  0.4679413484D+00
      0.3163926960D+01  0.3623119853D+00
 SP   3 1.00       0.000000000000
      0.7868272350D+01 -0.1193324198D+00  0.6899906659D-01
      0.1881288540D+01 -0.1608541517D+00  0.3164239610D+00
      0.5442492580D+00  0.1143456438D+01  0.7443082909D+00
 SP   1 1.00       0.000000000000
      0.1687144782D+00  0.1000000000D+01  0.1000000000D+01
 D   1 1.00       0.000000000000
      0.8000000000D+00  0.1000000000D+01
 ****
      6 0
 S   6 1.00       0.000000000000
      0.3047524880D+04  0.1834737132D-02
      0.4573695180D+03  0.1403732281D-01
      0.1039486850D+03  0.6884262226D-01
      0.2921015530D+02  0.2321844432D+00
      0.9286662960D+01  0.4679413484D+00
      0.3163926960D+01  0.3623119853D+00
 SP   3 1.00       0.000000000000
      0.7868272350D+01 -0.1193324198D+00  0.6899906659D-01
      0.1881288540D+01 -0.1608541517D+00  0.3164239610D+00
      0.5442492580D+00  0.1143456438D+01  0.7443082909D+00
 SP   1 1.00       0.000000000000
      0.1687144782D+00  0.1000000000D+01  0.1000000000D+01
 D   1 1.00       0.000000000000
      0.8000000000D+00  0.1000000000D+01
 ****
      7 0
 S   3 1.00       0.000000000000
      0.1873113696D+02  0.3349460434D-01
      0.2825394365D+01  0.2347269535D+00
      0.6401216923D+00  0.8137573261D+00
 S   1 1.00       0.000000000000
      0.1612777588D+00  0.1000000000D+01
 P   1 1.00       0.000000000000
      0.1100000000D+01  0.1000000000D+01
 ****
      8 0
 S   3 1.00       0.000000000000
      0.1873113696D+02  0.3349460434D-01
      0.2825394365D+01  0.2347269535D+00
      0.6401216923D+00  0.8137573261D+00
 S   1 1.00       0.000000000000
      0.1612777588D+00  0.1000000000D+01
 P   1 1.00       0.000000000000
      0.1100000000D+01  0.1000000000D+01
 ****
      9 0
 S   3 1.00       0.000000000000
      0.1873113696D+02  0.3349460434D-01
      0.2825394365D+01  0.2347269535D+00
      0.6401216923D+00  0.8137573261D+00
 S   1 1.00       0.000000000000
      0.1612777588D+00  0.1000000000D+01
 P   1 1.00       0.000000000000
      0.1100000000D+01  0.1000000000D+01
 ****
     10 0
 S   6 1.00       0.000000000000
      0.3047524880D+04  0.1834737132D-02
      0.4573695180D+03  0.1403732281D-01
      0.1039486850D+03  0.6884262226D-01
      0.2921015530D+02  0.2321844432D+00
      0.9286662960D+01  0.4679413484D+00
      0.3163926960D+01  0.3623119853D+00
 SP   3 1.00       0.000000000000
      0.7868272350D+01 -0.1193324198D+00  0.6899906659D-01
      0.1881288540D+01 -0.1608541517D+00  0.3164239610D+00
      0.5442492580D+00  0.1143456438D+01  0.7443082909D+00
 SP   1 1.00       0.000000000000
      0.1687144782D+00  0.1000000000D+01  0.1000000000D+01
 D   1 1.00       0.000000000000
      0.8000000000D+00  0.1000000000D+01
 ****
     11 0
 S   6 1.00       0.000000000000
      0.3047524880D+04  0.1834737132D-02
      0.4573695180D+03  0.1403732281D-01
      0.1039486850D+03  0.6884262226D-01
      0.2921015530D+02  0.2321844432D+00
      0.9286662960D+01  0.4679413484D+00
      0.3163926960D+01  0.3623119853D+00
 SP   3 1.00       0.000000000000
      0.7868272350D+01 -0.1193324198D+00  0.6899906659D-01
      0.1881288540D+01 -0.1608541517D+00  0.3164239610D+00
      0.5442492580D+00  0.1143456438D+01  0.7443082909D+00
 SP   1 1.00       0.000000000000
      0.1687144782D+00  0.1000000000D+01  0.1000000000D+01
 D   1 1.00       0.000000000000
      0.8000000000D+00  0.1000000000D+01
 ****
     12 0
 S   6 1.00       0.000000000000
      0.3047524880D+04  0.1834737132D-02
      0.4573695180D+03  0.1403732281D-01
      0.1039486850D+03  0.6884262226D-01
      0.2921015530D+02  0.2321844432D+00
      0.9286662960D+01  0.4679413484D+00
      0.3163926960D+01  0.3623119853D+00
 SP   3 1.00       0.000000000000
      0.7868272350D+01 -0.1193324198D+00  0.6899906659D-01
      0.1881288540D+01 -0.1608541517D+00  0.3164239610D+00
      0.5442492580D+00  0.1143456438D+01  0.7443082909D+00
 SP   1 1.00       0.000000000000
      0.1687144782D+00  0.1000000000D+01  0.1000000000D+01
 D   1 1.00       0.000000000000
      0.8000000000D+00  0.1000000000D+01
 ****
     13 0
 S   6 1.00       0.000000000000
      0.3047524880D+04  0.1834737132D-02
      0.4573695180D+03  0.1403732281D-01
      0.1039486850D+03  0.6884262226D-01
      0.2921015530D+02  0.2321844432D+00
      0.9286662960D+01  0.4679413484D+00
      0.3163926960D+01  0.3623119853D+00
 SP   3 1.00       0.000000000000
      0.7868272350D+01 -0.1193324198D+00  0.6899906659D-01
      0.1881288540D+01 -0.1608541517D+00  0.3164239610D+00
      0.5442492580D+00  0.1143456438D+01  0.7443082909D+00
 SP   1 1.00       0.000000000000
      0.1687144782D+00  0.1000000000D+01  0.1000000000D+01
 D   1 1.00       0.000000000000
      0.8000000000D+00  0.1000000000D+01
 ****
     14 0
 S   6 1.00       0.000000000000
      0.3047524880D+04  0.1834737132D-02
      0.4573695180D+03  0.1403732281D-01
      0.1039486850D+03  0.6884262226D-01
      0.2921015530D+02  0.2321844432D+00
      0.9286662960D+01  0.4679413484D+00
      0.3163926960D+01  0.3623119853D+00
 SP   3 1.00       0.000000000000
      0.7868272350D+01 -0.1193324198D+00  0.6899906659D-01
      0.1881288540D+01 -0.1608541517D+00  0.3164239610D+00
      0.5442492580D+00  0.1143456438D+01  0.7443082909D+00
 SP   1 1.00       0.000000000000
      0.1687144782D+00  0.1000000000D+01  0.1000000000D+01
 D   1 1.00       0.000000000000
      0.8000000000D+00  0.1000000000D+01
 ****
     15 0
 S   6 1.00       0.000000000000
      0.3047524880D+04  0.1834737132D-02
      0.4573695180D+03  0.1403732281D-01
      0.1039486850D+03  0.6884262226D-01
      0.2921015530D+02  0.2321844432D+00
      0.9286662960D+01  0.4679413484D+00
      0.3163926960D+01  0.3623119853D+00
 SP   3 1.00       0.000000000000
      0.7868272350D+01 -0.1193324198D+00  0.6899906659D-01
      0.1881288540D+01 -0.1608541517D+00  0.3164239610D+00
      0.5442492580D+00  0.1143456438D+01  0.7443082909D+00
 SP   1 1.00       0.000000000000
      0.1687144782D+00  0.1000000000D+01  0.1000000000D+01
 D   1 1.00       0.000000000000
      0.8000000000D+00  0.1000000000D+01
 ****
     16 0
 S   3 1.00       0.000000000000
      0.1873113696D+02  0.3349460434D-01
      0.2825394365D+01  0.2347269535D+00
      0.6401216923D+00  0.8137573261D+00
 S   1 1.00       0.000000000000
      0.1612777588D+00  0.1000000000D+01
 P   1 1.00       0.000000000000
      0.1100000000D+01  0.1000000000D+01
 ****
     17 0
 S   3 1.00       0.000000000000
      0.1873113696D+02  0.3349460434D-01
      0.2825394365D+01  0.2347269535D+00
      0.6401216923D+00  0.8137573261D+00
 S   1 1.00       0.000000000000
      0.1612777588D+00  0.1000000000D+01
 P   1 1.00       0.000000000000
      0.1100000000D+01  0.1000000000D+01
 ****
     18 0
 S   3 1.00       0.000000000000
      0.1873113696D+02  0.3349460434D-01
      0.2825394365D+01  0.2347269535D+00
      0.6401216923D+00  0.8137573261D+00
 S   1 1.00       0.000000000000
      0.1612777588D+00  0.1000000000D+01
 P   1 1.00       0.000000000000
      0.1100000000D+01  0.1000000000D+01
 ****
     19 0
 S   6 1.00       0.000000000000
      0.3047524880D+04  0.1834737132D-02
      0.4573695180D+03  0.1403732281D-01
      0.1039486850D+03  0.6884262226D-01
      0.2921015530D+02  0.2321844432D+00
      0.9286662960D+01  0.4679413484D+00
      0.3163926960D+01  0.3623119853D+00
 SP   3 1.00       0.000000000000
      0.7868272350D+01 -0.1193324198D+00  0.6899906659D-01
      0.1881288540D+01 -0.1608541517D+00  0.3164239610D+00
      0.5442492580D+00  0.1143456438D+01  0.7443082909D+00
 SP   1 1.00       0.000000000000
      0.1687144782D+00  0.1000000000D+01  0.1000000000D+01
 D   1 1.00       0.000000000000
      0.8000000000D+00  0.1000000000D+01
 ****
     20 0
 S   3 1.00       0.000000000000
      0.1873113696D+02  0.3349460434D-01
      0.2825394365D+01  0.2347269535D+00
      0.6401216923D+00  0.8137573261D+00
 S   1 1.00       0.000000000000
      0.1612777588D+00  0.1000000000D+01
 P   1 1.00       0.000000000000
      0.1100000000D+01  0.1000000000D+01
 ****
     21 0
 S   3 1.00       0.000000000000
      0.1873113696D+02  0.3349460434D-01
      0.2825394365D+01  0.2347269535D+00
      0.6401216923D+00  0.8137573261D+00
 S   1 1.00       0.000000000000
      0.1612777588D+00  0.1000000000D+01
 P   1 1.00       0.000000000000
      0.1100000000D+01  0.1000000000D+01
 ****
     22 0
 S   6 1.00       0.000000000000
      0.3047524880D+04  0.1834737132D-02
      0.4573695180D+03  0.1403732281D-01
      0.1039486850D+03  0.6884262226D-01
      0.2921015530D+02  0.2321844432D+00
      0.9286662960D+01  0.4679413484D+00
      0.3163926960D+01  0.3623119853D+00
 SP   3 1.00       0.000000000000
      0.7868272350D+01 -0.1193324198D+00  0.6899906659D-01
      0.1881288540D+01 -0.1608541517D+00  0.3164239610D+00
      0.5442492580D+00  0.1143456438D+01  0.7443082909D+00
 SP   1 1.00       0.000000000000
      0.1687144782D+00  0.1000000000D+01  0.1000000000D+01
 D   1 1.00       0.000000000000
      0.8000000000D+00  0.1000000000D+01
 ****
     23 0
 S   3 1.00       0.000000000000
      0.1873113696D+02  0.3349460434D-01
      0.2825394365D+01  0.2347269535D+00
      0.6401216923D+00  0.8137573261D+00
 S   1 1.00       0.000000000000
      0.1612777588D+00  0.1000000000D+01
 P   1 1.00       0.000000000000
      0.1100000000D+01  0.1000000000D+01
 ****
     24 0
 S   3 1.00       0.000000000000
      0.1873113696D+02  0.3349460434D-01
      0.2825394365D+01  0.2347269535D+00
      0.6401216923D+00  0.8137573261D+00
 S   1 1.00       0.000000000000
      0.1612777588D+00  0.1000000000D+01
 P   1 1.00       0.000000000000
      0.1100000000D+01  0.1000000000D+01
 ****
     25 0
 S   6 1.00       0.000000000000
      0.3047524880D+04  0.1834737132D-02
      0.4573695180D+03  0.1403732281D-01
      0.1039486850D+03  0.6884262226D-01
      0.2921015530D+02  0.2321844432D+00
      0.9286662960D+01  0.4679413484D+00
      0.3163926960D+01  0.3623119853D+00
 SP   3 1.00       0.000000000000
      0.7868272350D+01 -0.1193324198D+00  0.6899906659D-01
      0.1881288540D+01 -0.1608541517D+00  0.3164239610D+00
      0.5442492580D+00  0.1143456438D+01  0.7443082909D+00
 SP   1 1.00       0.000000000000
      0.1687144782D+00  0.1000000000D+01  0.1000000000D+01
 D   1 1.00       0.000000000000
      0.8000000000D+00  0.1000000000D+01
 ****
     26 0
 S   3 1.00       0.000000000000
      0.1873113696D+02  0.3349460434D-01
      0.2825394365D+01  0.2347269535D+00
      0.6401216923D+00  0.8137573261D+00
 S   1 1.00       0.000000000000
      0.1612777588D+00  0.1000000000D+01
 P   1 1.00       0.000000000000
      0.1100000000D+01  0.1000000000D+01
 ****
     27 0
 S   3 1.00       0.000000000000
      0.1873113696D+02  0.3349460434D-01
      0.2825394365D+01  0.2347269535D+00
      0.6401216923D+00  0.8137573261D+00
 S   1 1.00       0.000000000000
      0.1612777588D+00  0.1000000000D+01
 P   1 1.00       0.000000000000
      0.1100000000D+01  0.1000000000D+01
 ****
     28 0
 S   3 1.00       0.000000000000
      0.1873113696D+02  0.3349460434D-01
      0.2825394365D+01  0.2347269535D+00
      0.6401216923D+00  0.8137573261D+00
 S   1 1.00       0.000000000000
      0.1612777588D+00  0.1000000000D+01
 P   1 1.00       0.000000000000
      0.1100000000D+01  0.1000000000D+01
 ****
     29 0
 S   6 1.00       0.000000000000
      0.3047524880D+04  0.1834737132D-02
      0.4573695180D+03  0.1403732281D-01
      0.1039486850D+03  0.6884262226D-01
      0.2921015530D+02  0.2321844432D+00
      0.9286662960D+01  0.4679413484D+00
      0.3163926960D+01  0.3623119853D+00
 SP   3 1.00       0.000000000000
      0.7868272350D+01 -0.1193324198D+00  0.6899906659D-01
      0.1881288540D+01 -0.1608541517D+00  0.3164239610D+00
      0.5442492580D+00  0.1143456438D+01  0.7443082909D+00
 SP   1 1.00       0.000000000000
      0.1687144782D+00  0.1000000000D+01  0.1000000000D+01
 D   1 1.00       0.000000000000
      0.8000000000D+00  0.1000000000D+01
 ****
     30 0
 S   3 1.00       0.000000000000
      0.1873113696D+02  0.3349460434D-01
      0.2825394365D+01  0.2347269535D+00
      0.6401216923D+00  0.8137573261D+00
 S   1 1.00       0.000000000000
      0.1612777588D+00  0.1000000000D+01
 P   1 1.00       0.000000000000
      0.1100000000D+01  0.1000000000D+01
 ****
     31 0
 S   3 1.00       0.000000000000
      0.1873113696D+02  0.3349460434D-01
      0.2825394365D+01  0.2347269535D+00
      0.6401216923D+00  0.8137573261D+00
 S   1 1.00       0.000000000000
      0.1612777588D+00  0.1000000000D+01
 P   1 1.00       0.000000000000
      0.1100000000D+01  0.1000000000D+01
 ****
     32 0
 S   3 1.00       0.000000000000
      0.1873113696D+02  0.3349460434D-01
      0.2825394365D+01  0.2347269535D+00
      0.6401216923D+00  0.8137573261D+00
 S   1 1.00       0.000000000000
      0.1612777588D+00  0.1000000000D+01
 P   1 1.00       0.000000000000
      0.1100000000D+01  0.1000000000D+01
 ****

 AO basis set (Overlap normalization):
 Atom C1       Shell     1 S   6     bf    1 -     1         -5.238226354052          2.296868978021          0.971583625236
      0.3047524880D+04  0.1834737132D-02
      0.4573695180D+03  0.1403732281D-01
      0.1039486850D+03  0.6884262226D-01
      0.2921015530D+02  0.2321844432D+00
      0.9286662960D+01  0.4679413484D+00
      0.3163926960D+01  0.3623119853D+00
 Atom C1       Shell     2 SP   3    bf    2 -     5         -5.238226354052          2.296868978021          0.971583625236
      0.7868272350D+01 -0.1193324198D+00  0.6899906659D-01
      0.1881288540D+01 -0.1608541517D+00  0.3164239610D+00
      0.5442492580D+00  0.1143456438D+01  0.7443082909D+00
 Atom C1       Shell     3 SP   1    bf    6 -     9         -5.238226354052          2.296868978021          0.971583625236
      0.1687144782D+00  0.1000000000D+01  0.1000000000D+01
 Atom C1       Shell     4 D   1     bf   10 -    15         -5.238226354052          2.296868978021          0.971583625236
      0.8000000000D+00  0.1000000000D+01
 Atom C2       Shell     5 S   6     bf   16 -    16         -2.619576159929          2.183466512786          0.746120400322
      0.3047524880D+04  0.1834737132D-02
      0.4573695180D+03  0.1403732281D-01
      0.1039486850D+03  0.6884262226D-01
      0.2921015530D+02  0.2321844432D+00
      0.9286662960D+01  0.4679413484D+00
      0.3163926960D+01  0.3623119853D+00
 Atom C2       Shell     6 SP   3    bf   17 -    20         -2.619576159929          2.183466512786          0.746120400322
      0.7868272350D+01 -0.1193324198D+00  0.6899906659D-01
      0.1881288540D+01 -0.1608541517D+00  0.3164239610D+00
      0.5442492580D+00  0.1143456438D+01  0.7443082909D+00
 Atom C2       Shell     7 SP   1    bf   21 -    24         -2.619576159929          2.183466512786          0.746120400322
      0.1687144782D+00  0.1000000000D+01  0.1000000000D+01
 Atom C2       Shell     8 D   1     bf   25 -    30         -2.619576159929          2.183466512786          0.746120400322
      0.8000000000D+00  0.1000000000D+01
 Atom C3       Shell     9 S   6     bf   31 -    31         -1.411795496618         -0.093729066387          0.002910009519
      0.3047524880D+04  0.1834737132D-02
      0.4573695180D+03  0.1403732281D-01
      0.1039486850D+03  0.6884262226D-01
      0.2921015530D+02  0.2321844432D+00
      0.9286662960D+01  0.4679413484D+00
      0.3163926960D+01  0.3623119853D+00
 Atom C3       Shell    10 SP   3    bf   32 -    35         -1.411795496618         -0.093729066387          0.002910009519
      0.7868272350D+01 -0.1193324198D+00  0.6899906659D-01
      0.1881288540D+01 -0.1608541517D+00  0.3164239610D+00
      0.5442492580D+00  0.1143456438D+01  0.7443082909D+00
 Atom C3       Shell    11 SP   1    bf   36 -    39         -1.411795496618         -0.093729066387          0.002910009519
      0.1687144782D+00  0.1000000000D+01  0.1000000000D+01
 Atom C3       Shell    12 D   1     bf   40 -    45         -1.411795496618         -0.093729066387          0.002910009519
      0.8000000000D+00  0.1000000000D+01
 Atom C4       Shell    13 S   6     bf   46 -    46         -2.927677108635         -2.132195543192         -0.834030797475
      0.3047524880D+04  0.1834737132D-02
      0.4573695180D+03  0.1403732281D-01
      0.1039486850D+03  0.6884262226D-01
      0.2921015530D+02  0.2321844432D+00
      0.9286662960D+01  0.4679413484D+00
      0.3163926960D+01  0.3623119853D+00
 Atom C4       Shell    14 SP   3    bf   47 -    50         -2.927677108635         -2.132195543192         -0.834030797475
      0.7868272350D+01 -0.1193324198D+00  0.6899906659D-01
      0.1881288540D+01 -0.1608541517D+00  0.3164239610D+00
      0.5442492580D+00  0.1143456438D+01  0.7443082909D+00
 Atom C4       Shell    15 SP   1    bf   51 -    54         -2.927677108635         -2.132195543192         -0.834030797475
      0.1687144782D+00  0.1000000000D+01  0.1000000000D+01
 Atom C4       Shell    16 D   1     bf   55 -    60         -2.927677108635         -2.132195543192         -0.834030797475
      0.8000000000D+00  0.1000000000D+01
 Atom C5       Shell    17 S   6     bf   61 -    61         -5.562730125592         -1.957320286854         -0.578653207876
      0.3047524880D+04  0.1834737132D-02
      0.4573695180D+03  0.1403732281D-01
      0.1039486850D+03  0.6884262226D-01
      0.2921015530D+02  0.2321844432D+00
      0.9286662960D+01  0.4679413484D+00
      0.3163926960D+01  0.3623119853D+00
 Atom C5       Shell    18 SP   3    bf   62 -    65         -5.562730125592         -1.957320286854         -0.578653207876
      0.7868272350D+01 -0.1193324198D+00  0.6899906659D-01
      0.1881288540D+01 -0.1608541517D+00  0.3164239610D+00
      0.5442492580D+00  0.1143456438D+01  0.7443082909D+00
 Atom C5       Shell    19 SP   1    bf   66 -    69         -5.562730125592         -1.957320286854         -0.578653207876
      0.1687144782D+00  0.1000000000D+01  0.1000000000D+01
 Atom C5       Shell    20 D   1     bf   70 -    75         -5.562730125592         -1.957320286854         -0.578653207876
      0.8000000000D+00  0.1000000000D+01
 Atom C6       Shell    21 S   6     bf   76 -    76         -6.718070888715          0.197288758078          0.377907263329
      0.3047524880D+04  0.1834737132D-02
      0.4573695180D+03  0.1403732281D-01
      0.1039486850D+03  0.6884262226D-01
      0.2921015530D+02  0.2321844432D+00
      0.9286662960D+01  0.4679413484D+00
      0.3163926960D+01  0.3623119853D+00
 Atom C6       Shell    22 SP   3    bf   77 -    80         -6.718070888715          0.197288758078          0.377907263329
      0.7868272350D+01 -0.1193324198D+00  0.6899906659D-01
      0.1881288540D+01 -0.1608541517D+00  0.3164239610D+00
      0.5442492580D+00  0.1143456438D+01  0.7443082909D+00
 Atom C6       Shell    23 SP   1    bf   81 -    84         -6.718070888715          0.197288758078          0.377907263329
      0.1687144782D+00  0.1000000000D+01  0.1000000000D+01
 Atom C6       Shell    24 D   1     bf   85 -    90         -6.718070888715          0.197288758078          0.377907263329
      0.8000000000D+00  0.1000000000D+01
 Atom H7       Shell    25 S   3     bf   91 -    91         -6.123638636354          4.051819843109          1.568113473604
      0.1873113696D+02  0.3349460434D-01
      0.2825394365D+01  0.2347269535D+00
      0.6401216923D+00  0.8137573261D+00
 Atom H7       Shell    26 S   1     bf   92 -    92         -6.123638636354          4.051819843109          1.568113473604
      0.1612777588D+00  0.1000000000D+01
 Atom H7       Shell    27 P   1     bf   93 -    95         -6.123638636354          4.051819843109          1.568113473604
      0.1100000000D+01  0.1000000000D+01
 Atom H8       Shell    28 S   3     bf   96 -    96         -6.717919710625         -3.538265169626         -1.202376215297
      0.1873113696D+02  0.3349460434D-01
      0.2825394365D+01  0.2347269535D+00
      0.6401216923D+00  0.8137573261D+00
 Atom H8       Shell    29 S   1     bf   97 -    97         -6.717919710625         -3.538265169626         -1.202376215297
      0.1612777588D+00  0.1000000000D+01
 Atom H8       Shell    30 P   1     bf   98 -   100         -6.717919710625         -3.538265169626         -1.202376215297
      0.1100000000D+01  0.1000000000D+01
 Atom H9       Shell    31 S   3     bf  101 -   101         -8.760713660274          0.281721721696          0.562061074979
      0.1873113696D+02  0.3349460434D-01
      0.2825394365D+01  0.2347269535D+00
      0.6401216923D+00  0.8137573261D+00
 Atom H9       Shell    32 S   1     bf  102 -   102         -8.760713660274          0.281721721696          0.562061074979
      0.1612777588D+00  0.1000000000D+01
 Atom H9       Shell    33 P   1     bf  103 -   105         -8.760713660274          0.281721721696          0.562061074979
      0.1100000000D+01  0.1000000000D+01
 Atom C10      Shell    34 S   6     bf  106 -   106          1.411795496618         -0.093729066387         -0.002910346970
      0.3047524880D+04  0.1834737132D-02
      0.4573695180D+03  0.1403732281D-01
      0.1039486850D+03  0.6884262226D-01
      0.2921015530D+02  0.2321844432D+00
      0.9286662960D+01  0.4679413484D+00
      0.3163926960D+01  0.3623119853D+00
 Atom C10      Shell    35 SP   3    bf  107 -   110          1.411795496618         -0.093729066387         -0.002910346970
      0.7868272350D+01 -0.1193324198D+00  0.6899906659D-01
      0.1881288540D+01 -0.1608541517D+00  0.3164239610D+00
      0.5442492580D+00  0.1143456438D+01  0.7443082909D+00
 Atom C10      Shell    36 SP   1    bf  111 -   114          1.411795496618         -0.093729066387         -0.002910346970
      0.1687144782D+00  0.1000000000D+01  0.1000000000D+01
 Atom C10      Shell    37 D   1     bf  115 -   120          1.411795496618         -0.093729066387         -0.002910346970
      0.8000000000D+00  0.1000000000D+01
 Atom C11      Shell    38 S   6     bf  121 -   121          2.927677108634         -2.132195543192          0.834030460024
      0.3047524880D+04  0.1834737132D-02
      0.4573695180D+03  0.1403732281D-01
      0.1039486850D+03  0.6884262226D-01
      0.2921015530D+02  0.2321844432D+00
      0.9286662960D+01  0.4679413484D+00
      0.3163926960D+01  0.3623119853D+00
 Atom C11      Shell    39 SP   3    bf  122 -   125          2.927677108634         -2.132195543192          0.834030460024
      0.7868272350D+01 -0.1193324198D+00  0.6899906659D-01
      0.1881288540D+01 -0.1608541517D+00  0.3164239610D+00
      0.5442492580D+00  0.1143456438D+01  0.7443082909D+00
 Atom C11      Shell    40 SP   1    bf  126 -   129          2.927677108634         -2.132195543192          0.834030460024
      0.1687144782D+00  0.1000000000D+01  0.1000000000D+01
 Atom C11      Shell    41 D   1     bf  130 -   135          2.927677108634         -2.132195543192          0.834030460024
      0.8000000000D+00  0.1000000000D+01
 Atom C12      Shell    42 S   6     bf  136 -   136          2.619576159929          2.183466512786         -0.746120737773
      0.3047524880D+04  0.1834737132D-02
      0.4573695180D+03  0.1403732281D-01
      0.1039486850D+03  0.6884262226D-01
      0.2921015530D+02  0.2321844432D+00
      0.9286662960D+01  0.4679413484D+00
      0.3163926960D+01  0.3623119853D+00
 Atom C12      Shell    43 SP   3    bf  137 -   140          2.619576159929          2.183466512786         -0.746120737773
      0.7868272350D+01 -0.1193324198D+00  0.6899906659D-01
      0.1881288540D+01 -0.1608541517D+00  0.3164239610D+00
      0.5442492580D+00  0.1143456438D+01  0.7443082909D+00
 Atom C12      Shell    44 SP   1    bf  141 -   144          2.619576159929          2.183466512786         -0.746120737773
      0.1687144782D+00  0.1000000000D+01  0.1000000000D+01
 Atom C12      Shell    45 D   1     bf  145 -   150          2.619576159929          2.183466512786         -0.746120737773
      0.8000000000D+00  0.1000000000D+01
 Atom C13      Shell    46 S   6     bf  151 -   151          5.562730125591         -1.957320286855          0.578652870425
      0.3047524880D+04  0.1834737132D-02
      0.4573695180D+03  0.1403732281D-01
      0.1039486850D+03  0.6884262226D-01
      0.2921015530D+02  0.2321844432D+00
      0.9286662960D+01  0.4679413484D+00
      0.3163926960D+01  0.3623119853D+00
 Atom C13      Shell    47 SP   3    bf  152 -   155          5.562730125591         -1.957320286855          0.578652870425
      0.7868272350D+01 -0.1193324198D+00  0.6899906659D-01
      0.1881288540D+01 -0.1608541517D+00  0.3164239610D+00
      0.5442492580D+00  0.1143456438D+01  0.7443082909D+00
 Atom C13      Shell    48 SP   1    bf  156 -   159          5.562730125591         -1.957320286855          0.578652870425
      0.1687144782D+00  0.1000000000D+01  0.1000000000D+01
 Atom C13      Shell    49 D   1     bf  160 -   165          5.562730125591         -1.957320286855          0.578652870425
      0.8000000000D+00  0.1000000000D+01
 Atom C14      Shell    50 S   6     bf  166 -   166          5.238226354053          2.296868978020         -0.971583962687
      0.3047524880D+04  0.1834737132D-02
      0.4573695180D+03  0.1403732281D-01
      0.1039486850D+03  0.6884262226D-01
      0.2921015530D+02  0.2321844432D+00
      0.9286662960D+01  0.4679413484D+00
      0.3163926960D+01  0.3623119853D+00
 Atom C14      Shell    51 SP   3    bf  167 -   170          5.238226354053          2.296868978020         -0.971583962687
      0.7868272350D+01 -0.1193324198D+00  0.6899906659D-01
      0.1881288540D+01 -0.1608541517D+00  0.3164239610D+00
      0.5442492580D+00  0.1143456438D+01  0.7443082909D+00
 Atom C14      Shell    52 SP   1    bf  171 -   174          5.238226354053          2.296868978020         -0.971583962687
      0.1687144782D+00  0.1000000000D+01  0.1000000000D+01
 Atom C14      Shell    53 D   1     bf  175 -   180          5.238226354053          2.296868978020         -0.971583962687
      0.8000000000D+00  0.1000000000D+01
 Atom C15      Shell    54 S   6     bf  181 -   181          6.718070888715          0.197288758077         -0.377907600780
      0.3047524880D+04  0.1834737132D-02
      0.4573695180D+03  0.1403732281D-01
      0.1039486850D+03  0.6884262226D-01
      0.2921015530D+02  0.2321844432D+00
      0.9286662960D+01  0.4679413484D+00
      0.3163926960D+01  0.3623119853D+00
 Atom C15      Shell    55 SP   3    bf  182 -   185          6.718070888715          0.197288758077         -0.377907600780
      0.7868272350D+01 -0.1193324198D+00  0.6899906659D-01
      0.1881288540D+01 -0.1608541517D+00  0.3164239610D+00
      0.5442492580D+00  0.1143456438D+01  0.7443082909D+00
 Atom C15      Shell    56 SP   1    bf  186 -   189          6.718070888715          0.197288758077         -0.377907600780
      0.1687144782D+00  0.1000000000D+01  0.1000000000D+01
 Atom C15      Shell    57 D   1     bf  190 -   195          6.718070888715          0.197288758077         -0.377907600780
      0.8000000000D+00  0.1000000000D+01
 Atom H16      Shell    58 S   3     bf  196 -   196          6.717919710624         -3.538265169627          1.202375877846
      0.1873113696D+02  0.3349460434D-01
      0.2825394365D+01  0.2347269535D+00
      0.6401216923D+00  0.8137573261D+00
 Atom H16      Shell    59 S   1     bf  197 -   197          6.717919710624         -3.538265169627          1.202375877846
      0.1612777588D+00  0.1000000000D+01
 Atom H16      Shell    60 P   1     bf  198 -   200          6.717919710624         -3.538265169627          1.202375877846
      0.1100000000D+01  0.1000000000D+01
 Atom H17      Shell    61 S   3     bf  201 -   201          6.123638636355          4.051819843108         -1.568113811055
      0.1873113696D+02  0.3349460434D-01
      0.2825394365D+01  0.2347269535D+00
      0.6401216923D+00  0.8137573261D+00
 Atom H17      Shell    62 S   1     bf  202 -   202          6.123638636355          4.051819843108         -1.568113811055
      0.1612777588D+00  0.1000000000D+01
 Atom H17      Shell    63 P   1     bf  203 -   205          6.123638636355          4.051819843108         -1.568113811055
      0.1100000000D+01  0.1000000000D+01
 Atom H18      Shell    64 S   3     bf  206 -   206          8.760713660274          0.281721721694         -0.562061412430
      0.1873113696D+02  0.3349460434D-01
      0.2825394365D+01  0.2347269535D+00
      0.6401216923D+00  0.8137573261D+00
 Atom H18      Shell    65 S   1     bf  207 -   207          8.760713660274          0.281721721694         -0.562061412430
      0.1612777588D+00  0.1000000000D+01
 Atom H18      Shell    66 P   1     bf  208 -   210          8.760713660274          0.281721721694         -0.562061412430
      0.1100000000D+01  0.1000000000D+01
 Atom C19      Shell    67 S   6     bf  211 -   211         -1.002291843621          4.519753828134          1.052936335257
      0.3047524880D+04  0.1834737132D-02
      0.4573695180D+03  0.1403732281D-01
      0.1039486850D+03  0.6884262226D-01
      0.2921015530D+02  0.2321844432D+00
      0.9286662960D+01  0.4679413484D+00
      0.3163926960D+01  0.3623119853D+00
 Atom C19      Shell    68 SP   3    bf  212 -   215         -1.002291843621          4.519753828134          1.052936335257
      0.7868272350D+01 -0.1193324198D+00  0.6899906659D-01
      0.1881288540D+01 -0.1608541517D+00  0.3164239610D+00
      0.5442492580D+00  0.1143456438D+01  0.7443082909D+00
 Atom C19      Shell    69 SP   1    bf  216 -   219         -1.002291843621          4.519753828134          1.052936335257
      0.1687144782D+00  0.1000000000D+01  0.1000000000D+01
 Atom C19      Shell    70 D   1     bf  220 -   225         -1.002291843621          4.519753828134          1.052936335257
      0.8000000000D+00  0.1000000000D+01
 Atom H20      Shell    71 S   3     bf  226 -   226         -0.042197584547          4.541428986878          2.894946883287
      0.1873113696D+02  0.3349460434D-01
      0.2825394365D+01  0.2347269535D+00
      0.6401216923D+00  0.8137573261D+00
 Atom H20      Shell    72 S   1     bf  227 -   227         -0.042197584547          4.541428986878          2.894946883287
      0.1612777588D+00  0.1000000000D+01
 Atom H20      Shell    73 P   1     bf  228 -   230         -0.042197584547          4.541428986878          2.894946883287
      0.1100000000D+01  0.1000000000D+01
 Atom H21      Shell    74 S   3     bf  231 -   231         -2.185392683636          6.214214559708          0.959016946453
      0.1873113696D+02  0.3349460434D-01
      0.2825394365D+01  0.2347269535D+00
      0.6401216923D+00  0.8137573261D+00
 Atom H21      Shell    75 S   1     bf  232 -   232         -2.185392683636          6.214214559708          0.959016946453
      0.1612777588D+00  0.1000000000D+01
 Atom H21      Shell    76 P   1     bf  233 -   235         -2.185392683636          6.214214559708          0.959016946453
      0.1100000000D+01  0.1000000000D+01
 Atom C22      Shell    77 S   6     bf  236 -   236          1.002291843622          4.519753828134         -1.052936672708
      0.3047524880D+04  0.1834737132D-02
      0.4573695180D+03  0.1403732281D-01
      0.1039486850D+03  0.6884262226D-01
      0.2921015530D+02  0.2321844432D+00
      0.9286662960D+01  0.4679413484D+00
      0.3163926960D+01  0.3623119853D+00
 Atom C22      Shell    78 SP   3    bf  237 -   240          1.002291843622          4.519753828134         -1.052936672708
      0.7868272350D+01 -0.1193324198D+00  0.6899906659D-01
      0.1881288540D+01 -0.1608541517D+00  0.3164239610D+00
      0.5442492580D+00  0.1143456438D+01  0.7443082909D+00
 Atom C22      Shell    79 SP   1    bf  241 -   244          1.002291843622          4.519753828134         -1.052936672708
      0.1687144782D+00  0.1000000000D+01  0.1000000000D+01
 Atom C22      Shell    80 D   1     bf  245 -   250          1.002291843622          4.519753828134         -1.052936672708
      0.8000000000D+00  0.1000000000D+01
 Atom H23      Shell    81 S   3     bf  251 -   251          0.042197584548          4.541428986878         -2.894947220738
      0.1873113696D+02  0.3349460434D-01
      0.2825394365D+01  0.2347269535D+00
      0.6401216923D+00  0.8137573261D+00
 Atom H23      Shell    82 S   1     bf  252 -   252          0.042197584548          4.541428986878         -2.894947220738
      0.1612777588D+00  0.1000000000D+01
 Atom H23      Shell    83 P   1     bf  253 -   255          0.042197584548          4.541428986878         -2.894947220738
      0.1100000000D+01  0.1000000000D+01
 Atom H24      Shell    84 S   3     bf  256 -   256          2.185392683637          6.214214559708         -0.959017283904
      0.1873113696D+02  0.3349460434D-01
      0.2825394365D+01  0.2347269535D+00
      0.6401216923D+00  0.8137573261D+00
 Atom H24      Shell    85 S   1     bf  257 -   257          2.185392683637          6.214214559708         -0.959017283904
      0.1612777588D+00  0.1000000000D+01
 Atom H24      Shell    86 P   1     bf  258 -   260          2.185392683637          6.214214559708         -0.959017283904
      0.1100000000D+01  0.1000000000D+01
 Atom C25      Shell    87 S   6     bf  261 -   261         -1.890992249395         -4.424773493086         -2.197317024261
      0.3047524880D+04  0.1834737132D-02
      0.4573695180D+03  0.1403732281D-01
      0.1039486850D+03  0.6884262226D-01
      0.2921015530D+02  0.2321844432D+00
      0.9286662960D+01  0.4679413484D+00
      0.3163926960D+01  0.3623119853D+00
 Atom C25      Shell    88 SP   3    bf  262 -   265         -1.890992249395         -4.424773493086         -2.197317024261
      0.7868272350D+01 -0.1193324198D+00  0.6899906659D-01
      0.1881288540D+01 -0.1608541517D+00  0.3164239610D+00
      0.5442492580D+00  0.1143456438D+01  0.7443082909D+00
 Atom C25      Shell    89 SP   1    bf  266 -   269         -1.890992249395         -4.424773493086         -2.197317024261
      0.1687144782D+00  0.1000000000D+01  0.1000000000D+01
 Atom C25      Shell    90 D   1     bf  270 -   275         -1.890992249395         -4.424773493086         -2.197317024261
      0.8000000000D+00  0.1000000000D+01
 Atom H26      Shell    91 S   3     bf  276 -   276         -3.057444602180         -4.823354529034         -3.859085493737
      0.1873113696D+02  0.3349460434D-01
      0.2825394365D+01  0.2347269535D+00
      0.6401216923D+00  0.8137573261D+00
 Atom H26      Shell    92 S   1     bf  277 -   277         -3.057444602180         -4.823354529034         -3.859085493737
      0.1612777588D+00  0.1000000000D+01
 Atom H26      Shell    93 P   1     bf  278 -   280         -3.057444602180         -4.823354529034         -3.859085493737
      0.1100000000D+01  0.1000000000D+01
 Atom H27      Shell    94 S   3     bf  281 -   281         -0.047280947845         -4.137497326365          2.839124373322
      0.1873113696D+02  0.3349460434D-01
      0.2825394365D+01  0.2347269535D+00
      0.6401216923D+00  0.8137573261D+00
 Atom H27      Shell    95 S   1     bf  282 -   282         -0.047280947845         -4.137497326365          2.839124373322
      0.1612777588D+00  0.1000000000D+01
 Atom H27      Shell    96 P   1     bf  283 -   285         -0.047280947845         -4.137497326365          2.839124373322
      0.1100000000D+01  0.1000000000D+01
 Atom H28      Shell    97 S   3     bf  286 -   286         -1.924100251243         -6.126226211352         -1.018902705055
      0.1873113696D+02  0.3349460434D-01
      0.2825394365D+01  0.2347269535D+00
      0.6401216923D+00  0.8137573261D+00
 Atom H28      Shell    98 S   1     bf  287 -   287         -1.924100251243         -6.126226211352         -1.018902705055
      0.1612777588D+00  0.1000000000D+01
 Atom H28      Shell    99 P   1     bf  288 -   290         -1.924100251243         -6.126226211352         -1.018902705055
      0.1100000000D+01  0.1000000000D+01
 Atom C29      Shell   100 S   6     bf  291 -   291          1.890992249394         -4.424773493086          2.197316686810
      0.3047524880D+04  0.1834737132D-02
      0.4573695180D+03  0.1403732281D-01
      0.1039486850D+03  0.6884262226D-01
      0.2921015530D+02  0.2321844432D+00
      0.9286662960D+01  0.4679413484D+00
      0.3163926960D+01  0.3623119853D+00
 Atom C29      Shell   101 SP   3    bf  292 -   295          1.890992249394         -4.424773493086          2.197316686810
      0.7868272350D+01 -0.1193324198D+00  0.6899906659D-01
      0.1881288540D+01 -0.1608541517D+00  0.3164239610D+00
      0.5442492580D+00  0.1143456438D+01  0.7443082909D+00
 Atom C29      Shell   102 SP   1    bf  296 -   299          1.890992249394         -4.424773493086          2.197316686810
      0.1687144782D+00  0.1000000000D+01  0.1000000000D+01
 Atom C29      Shell   103 D   1     bf  300 -   305          1.890992249394         -4.424773493086          2.197316686810
      0.8000000000D+00  0.1000000000D+01
 Atom H30      Shell   104 S   3     bf  306 -   306          3.057444602179         -4.823354529034          3.859104053547
      0.1873113696D+02  0.3349460434D-01
      0.2825394365D+01  0.2347269535D+00
      0.6401216923D+00  0.8137573261D+00
 Atom H30      Shell   105 S   1     bf  307 -   307          3.057444602179         -4.823354529034          3.859104053547
      0.1612777588D+00  0.1000000000D+01
 Atom H30      Shell   106 P   1     bf  308 -   310          3.057444602179         -4.823354529034          3.859104053547
      0.1100000000D+01  0.1000000000D+01
 Atom H31      Shell   107 S   3     bf  311 -   311          0.047280947844         -4.137497326365         -2.839124710773
      0.1873113696D+02  0.3349460434D-01
      0.2825394365D+01  0.2347269535D+00
      0.6401216923D+00  0.8137573261D+00
 Atom H31      Shell   108 S   1     bf  312 -   312          0.047280947844         -4.137497326365         -2.839124710773
      0.1612777588D+00  0.1000000000D+01
 Atom H31      Shell   109 P   1     bf  313 -   315          0.047280947844         -4.137497326365         -2.839124710773
      0.1100000000D+01  0.1000000000D+01
 Atom H32      Shell   110 S   3     bf  316 -   316          1.924100251242         -6.126226211352          1.018902367604
      0.1873113696D+02  0.3349460434D-01
      0.2825394365D+01  0.2347269535D+00
      0.6401216923D+00  0.8137573261D+00
 Atom H32      Shell   111 S   1     bf  317 -   317          1.924100251242         -6.126226211352          1.018902367604
      0.1612777588D+00  0.1000000000D+01
 Atom H32      Shell   112 P   1     bf  318 -   320          1.924100251242         -6.126226211352          1.018902367604
      0.1100000000D+01  0.1000000000D+01
 There are   320 symmetry adapted cartesian basis functions of A   symmetry.
 There are   320 symmetry adapted basis functions of A   symmetry.
   320 basis functions,   560 primitive gaussians,   320 cartesian basis functions
    56 alpha electrons       56 beta electrons
       nuclear repulsion energy      1047.2377779395 Hartrees.
 NAtoms=   32 NActive=   32 NUniq=   32 SFac= 1.00D+00 NAtFMM=   60 NAOKFM=F Big=F
 Integral buffers will be    131072 words long.
 Raffenetti 2 integral format.
 Two-electron integral symmetry is turned on.
 One-electron integrals computed using PRISM.
 NBasis=   320 RedAO= T EigKep=  3.16D-04  NBF=   320
 NBsUse=   320 1.00D-06 EigRej= -1.00D+00 NBFU=   320
 ExpMin= 1.61D-01 ExpMax= 3.05D+03 ExpMxC= 4.57D+02 IAcc=1 IRadAn=         1 AccDes= 0.00D+00
 Harris functional with IExCor=  402 and IRadAn=       1 diagonalized for initial guess.
 HarFok:  IExCor=  402 AccDes= 0.00D+00 IRadAn=         1 IDoV= 1 UseB2=F ITyADJ=14
 ICtDFT=  3500011 ScaDFX=  1.000000  1.000000  1.000000  1.000000
 FoFCou: FMM=F IPFlag=           0 FMFlag=      100000 FMFlg1=           0
         NFxFlg=           0 DoJE=T BraDBF=F KetDBF=T FulRan=T
         wScrn=  0.000000 ICntrl=     500 IOpCl=  0 I1Cent=   200000004 NGrid=           0
         NMat0=    1 NMatS0=      1 NMatT0=    0 NMatD0=    1 NMtDS0=    0 NMtDT0=    0
 Petite list used in FoFCou.
 Keep R1 ints in memory in canonical form, NReq=1335818486.
 Requested convergence on RMS density matrix=1.00D-08 within 128 cycles.
 Requested convergence on MAX density matrix=1.00D-06.
 Requested convergence on             energy=1.00D-06.
 No special actions if energy rises.
 Integral accuracy reduced to 1.0D-05 until final iterations.
 Initial convergence to 1.0D-05 achieved.  Increase integral accuracy.
 SCF Done:  E(RB3LYP) =  -619.383374366     A.U. after   14 cycles
            NFock= 14  Conv=0.44D-08     -V/T= 2.0099
 QCSCF skips out because SCF is already converged.
 DoSCS=F DFT=T ScalE2(SS,OS)=  1.000000  1.000000
 Range of M.O.s used for correlation:     1   320
 NBasis=   320 NAE=    56 NBE=    56 NFC=     0 NFV=     0
 NROrb=    320 NOA=    56 NOB=    56 NVA=   264 NVB=   264
 Symmetrizing basis deriv contribution to polar:
 IMax=3 JMax=2 DiffMx= 0.00D+00
 G2DrvN: will do    33 centers at a time, making    1 passes.
 Calling FoFCou, ICntrl=  3107 FMM=F I1Cent=   0 AccDes= 0.00D+00.
 End of G2Drv F.D. properties file   721 does not exist.
 End of G2Drv F.D. properties file   722 does not exist.
 End of G2Drv F.D. properties file   788 does not exist.
          IDoAtm=11111111111111111111111111111111
          Differentiating once with respect to electric field.
                with respect to dipole field.
          Differentiating once with respect to nuclear coordinates.
 Keep R1 ints in memory in canonical form, NReq=1335498414.
          There are    99 degrees of freedom in the 1st order CPHF.  IDoFFX=6 NUNeed=     3.
     96 vectors produced by pass  0 Test12= 1.49D-14 1.01D-09 XBig12= 2.83D+02 1.11D+01.
 AX will form    96 AO Fock derivatives at one time.
     96 vectors produced by pass  1 Test12= 1.49D-14 1.01D-09 XBig12= 4.21D+01 1.05D+00.
     96 vectors produced by pass  2 Test12= 1.49D-14 1.01D-09 XBig12= 2.79D-01 7.99D-02.
     96 vectors produced by pass  3 Test12= 1.49D-14 1.01D-09 XBig12= 7.62D-04 3.64D-03.
     96 vectors produced by pass  4 Test12= 1.49D-14 1.01D-09 XBig12= 1.26D-06 1.26D-04.
     69 vectors produced by pass  5 Test12= 1.49D-14 1.01D-09 XBig12= 1.12D-09 4.49D-06.
     13 vectors produced by pass  6 Test12= 1.49D-14 1.01D-09 XBig12= 9.05D-13 1.21D-07.
      3 vectors produced by pass  7 Test12= 1.49D-14 1.01D-09 XBig12= 1.08D-15 2.92D-09.
 InvSVY:  IOpt=1 It=  1 EMax= 8.88D-15
 Solved reduced A of dimension   565 with    99 vectors.
 Isotropic polarizability for W=    0.000000      163.84 Bohr**3.
 End of Minotr F.D. properties file   721 does not exist.
 End of Minotr F.D. properties file   722 does not exist.
 End of Minotr F.D. properties file   788 does not exist.

 **********************************************************************

            Population analysis using the SCF density.

 **********************************************************************

 Orbital symmetries:
       Occupied  (A) (A) (A) (A) (A) (A) (A) (A) (A) (A) (A) (A)
                 (A) (A) (A) (A) (A) (A) (A) (A) (A) (A) (A) (A)
                 (A) (A) (A) (A) (A) (A) (A) (A) (A) (A) (A) (A)
                 (A) (A) (A) (A) (A) (A) (A) (A) (A) (A) (A) (A)
                 (A) (A) (A) (A) (A) (A) (A) (A)
       Virtual   (A) (A) (A) (A) (A) (A) (A) (A) (A) (A) (A) (A)
                 (A) (A) (A) (A) (A) (A) (A) (A) (A) (A) (A) (A)
                 (A) (A) (A) (A) (A) (A) (A) (A) (A) (A) (A) (A)
                 (A) (A) (A) (A) (A) (A) (A) (A) (A) (A) (A) (A)
                 (A) (A) (A) (A) (A) (A) (A) (A) (A) (A) (A) (A)
                 (A) (A) (A) (A) (A) (A) (A) (A) (A) (A) (A) (A)
                 (A) (A) (A) (A) (A) (A) (A) (A) (A) (A) (A) (A)
                 (A) (A) (A) (A) (A) (A) (A) (A) (A) (A) (A) (A)
                 (A) (A) (A) (A) (A) (A) (A) (A) (A) (A) (A) (A)
                 (A) (A) (A) (A) (A) (A) (A) (A) (A) (A) (A) (A)
                 (A) (A) (A) (A) (A) (A) (A) (A) (A) (A) (A) (A)
                 (A) (A) (A) (A) (A) (A) (A) (A) (A) (A) (A) (A)
                 (A) (A) (A) (A) (A) (A) (A) (A) (A) (A) (A) (A)
                 (A) (A) (A) (A) (A) (A) (A) (A) (A) (A) (A) (A)
                 (A) (A) (A) (A) (A) (A) (A) (A) (A) (A) (A) (A)
                 (A) (A) (A) (A) (A) (A) (A) (A) (A) (A) (A) (A)
                 (A) (A) (A) (A) (A) (A) (A) (A) (A) (A) (A) (A)
                 (A) (A) (A) (A) (A) (A) (A) (A) (A) (A) (A) (A)
                 (A) (A) (A) (A) (A) (A) (A) (A) (A) (A) (A) (A)
                 (A) (A) (A) (A) (A) (A) (A) (A) (A) (A) (A) (A)
                 (A) (A) (A) (A) (A) (A) (A) (A) (A) (A) (A) (A)
                 (A) (A) (A) (A) (A) (A) (A) (A) (A) (A) (A) (A)
 The electronic state is 1-A.
 Alpha  occ. eigenvalues --  -10.19400 -10.19400 -10.19132 -10.19105 -10.18923
 Alpha  occ. eigenvalues --  -10.18923 -10.18558 -10.18537 -10.18277 -10.18277
 Alpha  occ. eigenvalues --  -10.17918 -10.17918 -10.17850 -10.17850 -10.17652
 Alpha  occ. eigenvalues --  -10.17651  -0.87172  -0.84061  -0.80229  -0.77216
 Alpha  occ. eigenvalues --   -0.76269  -0.72476  -0.72390  -0.68198  -0.66869
 Alpha  occ. eigenvalues --   -0.62860  -0.60795  -0.58151  -0.55801  -0.54494
 Alpha  occ. eigenvalues --   -0.50407  -0.47731  -0.47643  -0.45829  -0.44709
 Alpha  occ. eigenvalues --   -0.43393  -0.42406  -0.41319  -0.40897  -0.40660
 Alpha  occ. eigenvalues --   -0.39777  -0.38827  -0.38049  -0.37586  -0.37565
 Alpha  occ. eigenvalues --   -0.36257  -0.35095  -0.34113  -0.33544  -0.33089
 Alpha  occ. eigenvalues --   -0.31618  -0.30707  -0.26306  -0.23057  -0.22991
 Alpha  occ. eigenvalues --   -0.21231
 Alpha virt. eigenvalues --   -0.02168   0.00499   0.00574   0.03351   0.10362
 Alpha virt. eigenvalues --    0.10751   0.11142   0.12196   0.12597   0.13608
 Alpha virt. eigenvalues --    0.14879   0.15523   0.15873   0.16518   0.16989
 Alpha virt. eigenvalues --    0.17609   0.18614   0.18888   0.19612   0.19907
 Alpha virt. eigenvalues --    0.21101   0.22048   0.22131   0.23792   0.24969
 Alpha virt. eigenvalues --    0.26133   0.26667   0.29094   0.31010   0.32448
 Alpha virt. eigenvalues --    0.33639   0.34187   0.37012   0.38116   0.39336
 Alpha virt. eigenvalues --    0.41071   0.45435   0.49071   0.51461   0.51810
 Alpha virt. eigenvalues --    0.52122   0.53410   0.54045   0.54395   0.54550
 Alpha virt. eigenvalues --    0.55441   0.56300   0.56470   0.57886   0.58218
 Alpha virt. eigenvalues --    0.58627   0.59656   0.60789   0.61233   0.61879
 Alpha virt. eigenvalues --    0.62318   0.62448   0.62950   0.64908   0.65057
 Alpha virt. eigenvalues --    0.66727   0.68184   0.68516   0.69586   0.72055
 Alpha virt. eigenvalues --    0.72480   0.72791   0.74206   0.74784   0.76754
 Alpha virt. eigenvalues --    0.78195   0.80100   0.81041   0.81260   0.81401
 Alpha virt. eigenvalues --    0.82150   0.83123   0.83932   0.84684   0.85328
 Alpha virt. eigenvalues --    0.87485   0.87873   0.87971   0.89083   0.89316
 Alpha virt. eigenvalues --    0.90324   0.90573   0.92282   0.92556   0.95103
 Alpha virt. eigenvalues --    0.95940   0.96926   0.97937   0.99274   1.02437
 Alpha virt. eigenvalues --    1.02825   1.06188   1.07303   1.08497   1.09129
 Alpha virt. eigenvalues --    1.12275   1.13059   1.13869   1.15205   1.17557
 Alpha virt. eigenvalues --    1.19209   1.20779   1.22595   1.24911   1.27153
 Alpha virt. eigenvalues --    1.29793   1.30085   1.32865   1.35254   1.35939
 Alpha virt. eigenvalues --    1.37112   1.38867   1.38951   1.40506   1.42309
 Alpha virt. eigenvalues --    1.44290   1.46225   1.49277   1.51844   1.53124
 Alpha virt. eigenvalues --    1.56323   1.61323   1.65736   1.66570   1.68552
 Alpha virt. eigenvalues --    1.72373   1.73117   1.73585   1.76723   1.76987
 Alpha virt. eigenvalues --    1.78109   1.79236   1.80178   1.82051   1.83255
 Alpha virt. eigenvalues --    1.84005   1.84365   1.85288   1.86460   1.87930
 Alpha virt. eigenvalues --    1.88656   1.90044   1.91582   1.91586   1.93487
 Alpha virt. eigenvalues --    1.95640   1.97019   2.00160   2.01171   2.01772
 Alpha virt. eigenvalues --    2.03221   2.03807   2.05565   2.06062   2.06119
 Alpha virt. eigenvalues --    2.07788   2.09926   2.10359   2.11399   2.11951
 Alpha virt. eigenvalues --    2.15002   2.15699   2.18615   2.19187   2.19396
 Alpha virt. eigenvalues --    2.20213   2.21062   2.23002   2.26401   2.26444
 Alpha virt. eigenvalues --    2.29005   2.30109   2.31016   2.31071   2.33734
 Alpha virt. eigenvalues --    2.35943   2.36680   2.37440   2.39887   2.39974
 Alpha virt. eigenvalues --    2.41506   2.43080   2.43902   2.44629   2.46348
 Alpha virt. eigenvalues --    2.46781   2.46919   2.50030   2.52805   2.54488
 Alpha virt. eigenvalues --    2.54607   2.55226   2.56813   2.57650   2.60320
 Alpha virt. eigenvalues --    2.61268   2.62116   2.62673   2.65029   2.66482
 Alpha virt. eigenvalues --    2.66654   2.69440   2.71346   2.72795   2.73136
 Alpha virt. eigenvalues --    2.74109   2.74787   2.76276   2.76377   2.78886
 Alpha virt. eigenvalues --    2.82791   2.84744   2.86084   2.86403   2.88925
 Alpha virt. eigenvalues --    2.89338   2.90641   2.90993   3.02319   3.04030
 Alpha virt. eigenvalues --    3.07442   3.07813   3.13124   3.18775   3.21133
 Alpha virt. eigenvalues --    3.21310   3.23092   3.25556   3.27315   3.27401
 Alpha virt. eigenvalues --    3.29261   3.33348   3.35286   3.39087   3.41288
 Alpha virt. eigenvalues --    3.44655   3.46123   3.46612   3.48622   3.49875
 Alpha virt. eigenvalues --    3.54041   3.79000   3.82117   4.13118   4.14812
 Alpha virt. eigenvalues --    4.16113   4.17515   4.18468   4.22118   4.35725
 Alpha virt. eigenvalues --    4.37444   4.42817   4.46297   4.47369   4.57896
 Alpha virt. eigenvalues --    4.58925   4.65771   4.79575   4.90782
          Condensed to atoms (all electrons):
               1          2          3          4          5          6
     1  C    4.945039   0.528688  -0.019328  -0.052707  -0.031278   0.502303
     2  C    0.528688   4.818819   0.493114  -0.032967  -0.050914  -0.020762
     3  C   -0.019328   0.493114   5.016215   0.494568  -0.005292  -0.047332
     4  C   -0.052707  -0.032967   0.494568   4.843122   0.500030  -0.019583
     5  C   -0.031278  -0.050914  -0.005292   0.500030   4.928753   0.521973
     6  C    0.502303  -0.020762  -0.047332  -0.019583   0.521973   4.849629
     7  H    0.361786  -0.037802   0.004793   0.000880   0.004433  -0.044044
     8  H    0.004577   0.000970   0.004227  -0.045041   0.366005  -0.041740
     9  H   -0.036878   0.003311   0.001324   0.003556  -0.036907   0.361202
    10  C    0.008028  -0.051879   0.322471  -0.065655   0.008366  -0.000270
    11  C   -0.000190   0.004104  -0.065655  -0.008586   0.000275   0.000024
    12  C    0.001040  -0.030736  -0.051879   0.004104  -0.000173   0.000004
    13  C    0.000001  -0.000173   0.008366   0.000275   0.000004   0.000000
    14  C    0.000013   0.001040   0.008028  -0.000190   0.000001   0.000000
    15  C    0.000000   0.000004  -0.000270   0.000024   0.000000   0.000000
    16  H    0.000000   0.000001  -0.000171  -0.000002   0.000000   0.000000
    17  H    0.000000  -0.000017  -0.000182   0.000002   0.000000   0.000000
    18  H    0.000000   0.000000   0.000012   0.000000   0.000000   0.000000
    19  C   -0.058949   0.355207  -0.061615   0.008860   0.000101   0.007231
    20  H    0.001230  -0.027183  -0.004580  -0.000306   0.000024  -0.000228
    21  H   -0.007240  -0.033401   0.003962  -0.000112  -0.000007   0.000275
    22  C    0.000245  -0.032475  -0.021796  -0.000106   0.000062  -0.000232
    23  H    0.001257  -0.000727   0.002999  -0.000063  -0.000058  -0.000056
    24  H   -0.000155   0.003749   0.000968   0.000017  -0.000001   0.000003
    25  C    0.000246   0.007369  -0.053820   0.358819  -0.071635   0.006797
    26  H    0.000024  -0.000164   0.002090  -0.029586  -0.006052   0.000182
    27  H   -0.000058  -0.000035   0.007164   0.007160   0.000362  -0.000019
    28  H    0.000019  -0.000209   0.000142  -0.025641  -0.002287  -0.000126
    29  C    0.000028   0.000148  -0.014473  -0.005553  -0.000495   0.000001
    30  H   -0.000001   0.000009   0.000040   0.000242   0.000008  -0.000001
    31  H    0.000017   0.000040  -0.007089  -0.025063   0.003858  -0.000219
    32  H    0.000000  -0.000005   0.001004  -0.001382  -0.000052   0.000001
               7          8          9         10         11         12
     1  C    0.361786   0.004577  -0.036878   0.008028  -0.000190   0.001040
     2  C   -0.037802   0.000970   0.003311  -0.051879   0.004104  -0.030736
     3  C    0.004793   0.004227   0.001324   0.322471  -0.065655  -0.051879
     4  C    0.000880  -0.045041   0.003556  -0.065655  -0.008586   0.004104
     5  C    0.004433   0.366005  -0.036907   0.008366   0.000275  -0.000173
     6  C   -0.044044  -0.041740   0.361202  -0.000270   0.000024   0.000004
     7  H    0.644093  -0.000216  -0.005406  -0.000182   0.000002  -0.000017
     8  H   -0.000216   0.646357  -0.005919  -0.000171  -0.000002   0.000001
     9  H   -0.005406  -0.005919   0.635252   0.000012   0.000000   0.000000
    10  C   -0.000182  -0.000171   0.000012   5.016215   0.494567   0.493114
    11  C    0.000002  -0.000002   0.000000   0.494567   4.843122  -0.032967
    12  C   -0.000017   0.000001   0.000000   0.493114  -0.032967   4.818819
    13  C    0.000000   0.000000   0.000000  -0.005292   0.500031  -0.050914
    14  C    0.000000   0.000000   0.000000  -0.019328  -0.052707   0.528688
    15  C    0.000000   0.000000   0.000000  -0.047332  -0.019583  -0.020762
    16  H    0.000000   0.000000   0.000000   0.004227  -0.045041   0.000970
    17  H    0.000000   0.000000   0.000000   0.004793   0.000880  -0.037802
    18  H    0.000000   0.000000   0.000000   0.001324   0.003556   0.003311
    19  C   -0.010621   0.000011  -0.000195  -0.021796  -0.000106  -0.032475
    20  H    0.000297   0.000000   0.000003   0.002999  -0.000063  -0.000727
    21  H    0.005885   0.000000  -0.000009   0.000968   0.000017   0.003749
    22  C    0.000251   0.000000   0.000002  -0.061615   0.008860   0.355207
    23  H   -0.000016   0.000000   0.000001  -0.004580  -0.000306  -0.027183
    24  H   -0.000005   0.000000   0.000000   0.003962  -0.000112  -0.033401
    25  C    0.000012  -0.008794  -0.000210  -0.014473  -0.005552   0.000148
    26  H    0.000000   0.003659  -0.000009   0.000040   0.000242   0.000009
    27  H    0.000000  -0.000015   0.000000  -0.007089  -0.025063   0.000040
    28  H    0.000000   0.001431   0.000002   0.001004  -0.001382  -0.000005
    29  C    0.000000  -0.000004   0.000000  -0.053820   0.358819   0.007369
    30  H    0.000000   0.000000   0.000000   0.002090  -0.029585  -0.000164
    31  H    0.000000   0.000112   0.000003   0.007164   0.007160  -0.000035
    32  H    0.000000   0.000001   0.000000   0.000142  -0.025641  -0.000209
              13         14         15         16         17         18
     1  C    0.000001   0.000013   0.000000   0.000000   0.000000   0.000000
     2  C   -0.000173   0.001040   0.000004   0.000001  -0.000017   0.000000
     3  C    0.008366   0.008028  -0.000270  -0.000171  -0.000182   0.000012
     4  C    0.000275  -0.000190   0.000024  -0.000002   0.000002   0.000000
     5  C    0.000004   0.000001   0.000000   0.000000   0.000000   0.000000
     6  C    0.000000   0.000000   0.000000   0.000000   0.000000   0.000000
     7  H    0.000000   0.000000   0.000000   0.000000   0.000000   0.000000
     8  H    0.000000   0.000000   0.000000   0.000000   0.000000   0.000000
     9  H    0.000000   0.000000   0.000000   0.000000   0.000000   0.000000
    10  C   -0.005292  -0.019328  -0.047332   0.004227   0.004793   0.001324
    11  C    0.500031  -0.052707  -0.019583  -0.045041   0.000880   0.003556
    12  C   -0.050914   0.528688  -0.020762   0.000970  -0.037802   0.003311
    13  C    4.928753  -0.031278   0.521973   0.366005   0.004433  -0.036907
    14  C   -0.031278   4.945039   0.502302   0.004577   0.361786  -0.036878
    15  C    0.521973   0.502302   4.849629  -0.041740  -0.044044   0.361202
    16  H    0.366005   0.004577  -0.041740   0.646357  -0.000216  -0.005919
    17  H    0.004433   0.361786  -0.044044  -0.000216   0.644093  -0.005406
    18  H   -0.036907  -0.036878   0.361202  -0.005919  -0.005406   0.635252
    19  C    0.000062   0.000245  -0.000232   0.000000   0.000251   0.000002
    20  H   -0.000058   0.001257  -0.000056   0.000000  -0.000016   0.000001
    21  H   -0.000001  -0.000155   0.000003   0.000000  -0.000005   0.000000
    22  C    0.000101  -0.058949   0.007231   0.000011  -0.010621  -0.000195
    23  H    0.000024   0.001230  -0.000228   0.000000   0.000297   0.000003
    24  H   -0.000007  -0.007240   0.000275   0.000000   0.005885  -0.000009
    25  C   -0.000495   0.000028   0.000001  -0.000004   0.000000   0.000000
    26  H    0.000008  -0.000001  -0.000001   0.000000   0.000000   0.000000
    27  H    0.003858   0.000017  -0.000219   0.000112   0.000000   0.000003
[...]
 0.00036401,-0.00005552,-0.00001540,0.00002135,-0.00005494,0.00001286,-
 0.00009337,-0.00020653,-0.00002477,0.00002614,-0.00001256,0.00009720,-
 0.00002943,-0.00000843,-0.00001075,0.00001927,-0.00000108,-0.00002863,
 -0.00001719,0.00003522,0.00000392,0.00003362,-0.00003758,0.00000370,0.
 00001568,-0.00001040,0.00000771,-0.00052140,-0.00021633,-0.00076934,0.
 00003377,0.00020287,-0.00016868,0.31402547,-0.00019433,-0.00016784,0.0
 0002352,0.00036788,-0.00038874,-0.00023983,0.00001063,-0.00056295,0.00
 032475,0.00043333,0.00049166,0.00078141,0.00034760,-0.00006335,-0.0000
 0173,-0.00003651,0.00021080,0.00011646,-0.00001063,0.00000519,0.000017
 53,-0.00006115,-0.00001365,-0.00005325,-0.00001303,0.00001038,-0.00001
 146,-0.00018978,0.00123456,-0.00039007,-0.02707885,0.00504883,0.007554
 19,-0.00031781,0.00004079,-0.00028789,-0.00088902,-0.00478658,0.002854
 63,0.00010491,0.00001557,0.00004229,-0.00136165,0.00023719,-0.00033042
 ,-0.00011931,0.00006538,0.00010000,0.00003761,-0.00002222,0.00003282,-
 0.00021889,-0.00038777,0.00005867,-0.00002087,-0.00003957,0.00002186,-
 0.00000731,-0.00000252,0.00000299,0.00002893,0.00002225,-0.00002777,0.
 00000872,0.00009581,0.00001640,0.00002396,-0.00003346,0.00001017,0.000
 02818,0.00002092,-0.00000300,0.00019134,0.00036154,0.00003443,0.000065
 37,-0.00022725,0.00008341,-0.04089697,0.05867109,0.00038105,0.00002623
 ,-0.00009273,-0.00035203,0.00036136,0.00023094,0.00038172,0.00035409,-
 0.00031572,-0.00055552,0.00067515,-0.00010038,-0.00060917,0.00003687,0
 .00024912,-0.00006903,-0.00035464,-0.00014664,0.00001191,-0.00002859,0
 .00000184,-0.00001891,0.00001886,0.00002130,0.00003394,-0.00002242,-0.
 00001609,0.00017560,-0.00071534,0.00066777,0.01403778,-0.00412835,-0.0
 0476351,0.00041372,0.00007176,0.00012286,0.00051169,0.00339662,-0.0008
 7241,-0.00031325,0.00031024,-0.00017947,0.00061421,-0.00056936,0.00088
 255,0.00011590,-0.00023521,-0.00021551,-0.00002757,0.00000466,-0.00002
 415,0.00010718,0.00017005,-0.00016439,0.00005353,0.00001878,-0.0000128
 6,-0.00003860,-0.00007248,-0.00002935,-0.00003894,-0.00002050,0.000005
 28,0.00000739,-0.00010559,-0.00007606,-0.00001921,0.00005444,-0.000024
 26,-0.00003295,-0.00002666,0.00000454,-0.00002910,0.00004174,-0.000803
 22,0.00008713,-0.00015216,0.00021056,-0.08539130,0.01108867,0.07629944
 ,0.00046127,0.00058281,0.00007350,-0.00067299,0.00028528,0.00056807,-0
 .00106851,-0.00081554,-0.00066192,-0.00057630,0.01016476,-0.00641329,0
 .00008992,0.00098077,0.00135659,0.00016776,-0.00098257,0.00011165,-0.0
 0000696,-0.00001379,-0.00004591,-0.00050143,-0.00009429,-0.00023109,-0
 .00003706,0.00001304,-0.00002821,0.00073072,-0.00004752,-0.00061456,0.
 00011315,-0.00009866,0.00059042,-0.00004523,-0.00011238,-0.00010741,-0
 .00019514,0.00003219,-0.00004012,0.00018899,-0.00004367,0.00007191,0.0
 0007426,0.00018253,-0.00010800,-0.00003277,-0.00000321,0.00001531,0.00
 000917,0.00002285,0.00002043,0.00001538,0.00001256,-0.00001694,-0.0000
 4865,-0.00004125,0.00005002,0.00002288,-0.00000059,-0.00000952,-0.0000
 1456,-0.00000934,0.00000671,0.00004306,-0.00003444,0.00000184,-0.00003
 154,0.00002415,-0.00000860,-0.00000186,0.00001212,-0.00001019,-0.04522
 098,-0.00362426,0.00321020,0.00057302,0.01637698,-0.01162298,-0.000006
 26,-0.00004664,-0.00016492,0.04680244,0.00076574,0.00011336,0.00012708
 ,-0.00054624,0.00035690,-0.00129194,0.00255532,-0.00142799,-0.00050686
 ,0.00065718,-0.02186525,0.01092974,-0.00235994,0.00089443,-0.00045305,
 -0.00002893,-0.00089133,-0.00141064,0.00004658,-0.00005219,0.00015642,
 0.00042114,-0.00005401,0.00070432,0.00007884,-0.00006690,-0.00001944,0
 .00027183,-0.00015050,0.00049528,-0.00021351,-0.00087405,0.00055479,-0
 .00010780,0.00011269,-0.00000736,0.00016916,0.00021861,-0.00024724,-0.
 00007804,0.00012185,-0.00007407,-0.00008053,-0.00012903,0.00003213,-0.
 00008273,0.00001319,-0.00000282,-0.00002304,0.00000250,0.00000636,0.00
 000962,0.00003122,0.00001094,0.00017040,-0.00000473,0.00000649,-0.0000
 3780,-0.00002954,-0.00002899,-0.00002484,-0.00004475,0.00002273,0.0000
 2344,0.00001697,-0.00004233,0.00000179,0.00003840,-0.00001732,-0.00004
 431,-0.00000855,0.00000641,-0.00575942,-0.21841514,0.12639738,0.000375
 20,0.00548987,-0.00314572,0.00030474,-0.00049144,-0.00067904,0.0030626
 8,0.23925330,0.00000196,-0.00034402,-0.00003682,0.00000414,0.00000514,
 -0.00090454,0.00012513,-0.00107520,-0.00104609,-0.00120384,-0.01468459
 ,0.01226311,0.00013554,-0.00004309,0.00033309,-0.00027255,0.00029584,-
 0.00028721,-0.00000675,0.00000059,0.00001591,-0.00003620,0.00022324,0.
 00005661,0.00002168,-0.00000382,0.00002629,0.00037679,-0.00014466,0.00
 030372,0.00011738,0.00004056,-0.00007080,-0.00024970,-0.00015210,0.000
 01456,-0.00018166,0.00006022,0.00010205,0.00014845,-0.00005145,-0.0000
 2256,-0.00003152,0.00015431,-0.00004572,-0.00000335,-0.00000341,0.0000
 0120,-0.00000177,0.00000150,0.00000421,0.00000936,0.00001125,-0.000020
 23,0.00007069,0.00001087,-0.00000400,-0.00000816,0.00000106,0.00000109
 ,-0.00000641,-0.00000628,0.00001964,-0.00002024,0.00001921,-0.00001707
 ,0.00001492,-0.00000660,0.00000504,-0.00000865,0.00000570,0.00001069,0
 .00560785,0.12405358,-0.13384956,0.00176855,0.02120688,-0.01569194,-0.
 00028935,-0.00044515,-0.00059739,-0.00320682,-0.13533799,0.14710402,-0
 .00040144,-0.00020281,-0.00000086,0.00023192,-0.00020340,-0.00009688,-
 0.00046391,0.00091448,-0.00072606,-0.00074952,0.00093481,-0.00137722,0
 .00034201,-0.00020294,0.00012297,-0.00017134,0.00042458,0.00016220,-0.
 00000989,-0.00000390,0.00001451,-0.00001229,0.00001153,-0.00009266,-0.
 00000501,-0.00000180,0.00001584,0.01299014,0.01169471,-0.00564940,-0.1
 0544855,-0.03295270,0.02131865,-0.00278373,0.00318809,0.00018107,-0.01
 525038,-0.03250830,0.01617205,-0.00010215,0.00027271,-0.00031367,-0.00
 546375,0.00144481,-0.00044095,0.00101831,-0.00111459,0.00094157,0.0001
 6867,-0.00010457,0.00004679,-0.00061940,-0.00129320,0.00046892,0.00008
 181,-0.00006705,-0.00014764,0.00001455,-0.00001662,0.00001325,-0.00003
 309,-0.00000332,0.00002717,0.00098031,0.00090550,-0.00001709,-0.000000
 49,-0.00002609,-0.00001161,-0.00022133,0.00037602,-0.00005830,-0.00161
 899,-0.00068147,-0.00181329,-0.00048568,0.00042049,-0.00003881,-0.2892
 7175,0.04017843,0.07760208,-0.00036555,0.00045774,-0.00135114,0.588778
 83,-0.00032068,-0.00016871,0.00009393,0.00027283,-0.00049234,-0.000024
 84,-0.00237474,-0.00038944,-0.00128869,0.00048157,0.00031917,0.0008650
 2,0.00021941,-0.00016827,-0.00014260,0.00003809,0.00026558,0.00007835,
 -0.00002624,0.00000339,0.00000330,-0.00001947,0.00000772,0.00001275,0.
 00000465,0.00000054,0.00000072,-0.00450050,-0.01936636,0.01304128,-0.0
 3338765,-0.15711725,0.04679783,0.00168296,0.00036271,0.00356952,-0.010
 15258,-0.00437660,0.00669480,0.00117247,-0.00219233,0.00040122,0.00226
 078,0.00539515,0.00135934,0.00099196,-0.00014843,-0.00207083,-0.000058
 44,-0.00005442,-0.00049149,0.00030153,0.00036505,-0.00022411,0.0000520
 3,0.00010798,-0.00011535,0.00001361,-0.00001360,0.00000535,-0.00000305
 ,0.00001412,0.00000317,-0.00062685,-0.00010906,0.00004779,-0.00002998,
 0.00009846,-0.00001574,0.00007427,-0.00007243,-0.00006886,0.00068147,-
 0.00075245,0.00026033,0.00016274,-0.00025613,0.00003279,0.03750343,-0.
 05405702,-0.01094202,-0.00094022,0.00017051,-0.00022353,-0.02545756,0.
 50237347,-0.00032624,-0.00018657,0.00008340,0.00078067,-0.00037380,-0.
 00012438,-0.00051397,-0.00111072,-0.00257623,-0.00140800,0.00019612,-0
 .00064295,0.00054825,-0.00028480,-0.00030551,0.00012330,0.00033677,0.0
 0014772,0.00002437,0.00001055,-0.00002519,-0.00001564,-0.00001815,0.00
 001436,-0.00001179,0.00001783,0.00000212,0.00427340,0.00671902,-0.0011
 8431,0.02357619,0.05661219,-0.10102228,-0.00017586,0.00288848,0.005332
 10,0.00744791,0.00783866,-0.00123333,-0.00204329,0.00034193,-0.0006201
 6,-0.00005625,-0.00079830,0.00484443,-0.00139427,-0.00056387,-0.001587
 50,-0.00005472,-0.00011790,-0.00057601,-0.00009749,-0.00002457,0.00017
 407,0.00010476,-0.00001732,-0.00003975,0.00000383,0.00003358,0.0000266
 0,0.00002251,0.00000286,0.00001338,0.00054810,0.00058689,0.00018448,0.
 00000341,-0.00005597,0.00000102,-0.00016594,0.00020044,-0.00017584,-0.
 00181330,-0.00026033,-0.00157859,-0.00005985,0.00048771,-0.00038005,0.
 08033049,-0.01258831,-0.07388470,-0.00072960,0.00083596,-0.00076817,0.
 00927803,0.02852141,0.52679800,-0.00029716,-0.00006858,0.00001273,0.00
 030220,-0.00032039,-0.00016076,-0.00057744,0.00031108,0.00002681,-0.00
 010319,-0.00008723,-0.00048993,0.00041487,-0.00000656,-0.00015424,0.00
 001287,0.00026637,0.00013025,-0.00001014,0.00002245,-0.00000840,0.0000
 1874,-0.00001121,-0.00000675,-0.00002031,0.00001481,0.00001557,-0.0008
 5004,-0.00024267,0.00056311,0.00737251,-0.00265351,0.01071147,-0.00058
 635,-0.00073713,-0.00031386,-0.00067077,-0.00212783,0.00191426,0.00073
 504,-0.00071189,0.00039637,0.00054201,0.00130320,-0.00014140,-0.000150
 58,-0.00007019,-0.00032446,0.00000147,-0.00001056,-0.00013828,0.000013
 79,0.00005476,-0.00006042,-0.00002459,-0.00000449,-0.00000288,0.000033
 57,0.00004840,0.00002420,0.00001932,0.00001737,-0.00000493,-0.00014626
 ,-0.00006539,-0.00005978,-0.00000496,0.00000901,0.00001007,0.00006616,
 -0.00001909,0.00001271,-0.00048569,-0.00016274,-0.00005985,-0.00000038
 ,0.00018283,-0.00014612,-0.01503064,0.00412976,-0.02534335,0.00008601,
 0.00046318,0.00005881,-0.13538604,0.02814367,-0.12063993,0.14411926,0.
 00017418,0.00007739,0.00000862,-0.00009681,0.00028000,0.00002653,-0.00
 001289,-0.00002010,0.00040091,0.00021973,-0.00041239,-0.00011932,-0.00
 017054,0.00013672,0.00011654,0.00002856,-0.00015884,-0.00007239,0.0000
 2205,-0.00000835,0.00000139,0.00004684,0.00000856,0.00000881,0.0000028
 7,0.00000613,-0.00000003,-0.00313831,-0.00113590,0.00168572,0.01473176
 ,-0.01018804,0.02355551,0.00062371,-0.00102607,-0.00068977,0.00143880,
 0.00072374,-0.00062854,0.00011153,0.00002032,0.00016114,0.00011923,-0.
 00045471,-0.00046721,-0.00031570,0.00060522,0.00018791,-0.00003798,0.0
 0002416,0.00008237,-0.00001435,0.00003691,0.00003040,-0.00001510,0.000
 02878,0.00009421,-0.00001897,-0.00001845,-0.00001948,0.00001542,-0.000
 00849,-0.00002120,-0.00036235,-0.00029891,-0.00007443,0.00000898,0.000
 00788,-0.00000297,0.00008120,-0.00014362,0.00004018,-0.00042049,-0.000
 25613,-0.00048771,-0.00018283,0.00025818,-0.00010769,0.00265447,-0.001
 78643,0.00415736,0.00026524,0.00039794,-0.00018088,0.02804824,-0.05169
 508,0.03720202,-0.02722686,0.05973689,0.00011244,0.00007147,0.00001211
 ,-0.00016500,0.00004324,0.00005495,0.00030272,-0.00016002,0.00001544,0
 .00020050,-0.00019695,0.00005082,-0.00021327,0.00008657,0.00016445,-0.
 00001991,-0.00013436,-0.00006182,-0.00001169,0.00001183,0.00000465,-0.
 00000532,-0.00000705,-0.00000611,-0.00001525,0.00000697,-0.00000694,0.
 00182766,0.00058974,-0.00123366,-0.00787146,0.00417268,-0.01108124,-0.
 00059706,0.00013202,0.00057747,-0.00156515,0.00013465,0.00152743,0.000
 33169,-0.00013175,-0.00009157,0.00019566,0.00052230,0.00028133,0.00088
 681,-0.00050412,-0.00034441,0.00004765,-0.00006121,-0.00007594,0.00001
 667,-0.00000715,-0.00004469,0.00000766,-0.00003727,-0.00004640,0.00001
 309,-0.00000838,0.00000749,-0.00000912,0.00001163,0.00000644,0.0002079
 6,0.00011404,0.00002913,0.,-0.00001210,-0.00000520,-0.00003712,0.00007
 308,-0.00002523,-0.00003881,-0.00003279,-0.00038005,-0.00014612,0.0001
 0769,0.00001889,0.00567225,-0.00206733,0.00996615,0.00014916,0.0001390
 7,-0.00013102,-0.11980845,0.03791473,-0.21624403,0.13232330,-0.0438335
 8,0.23254278,0.00004033,-0.00002508,-0.00001196,-0.00011222,0.00020238
 ,-0.00003981,-0.00056523,-0.00102700,-0.00097639,-0.00970945,-0.000564
 17,0.00226112,0.00015563,0.00179533,0.00185605,-0.00040687,-0.00022366
 ,0.00001534,0.00002135,0.00005494,0.00001286,0.00036401,0.00005552,-0.
 00001540,-0.00009336,0.00020653,-0.00002477,0.00050695,-0.00094746,-0.
 00060723,-0.00037048,0.00002035,-0.00076158,0.00024833,0.00007172,-0.0
 0015120,-0.00021165,-0.00003869,-0.00017486,-0.00003388,-0.00000936,-0
 .00001365,0.00002063,-0.00002352,0.00002845,0.00002371,0.00000370,0.00
 003388,0.00000778,0.00001199,0.00000954,0.00000767,0.00000487,0.000010
 72,-0.00001719,-0.00003522,0.00000392,0.00003362,0.00003758,0.00000370
 ,0.00001568,0.00001040,0.00000771,0.00002614,0.00001256,0.00009720,-0.
 00002943,0.00000843,-0.00001075,0.00001927,0.00000108,-0.00002863,-0.2
 8927174,-0.03750347,0.08033024,-0.01503064,-0.00265443,0.00567254,0.00
 002735,0.00001942,0.00001699,0.00080218,-0.00007042,-0.00092532,-0.000
 52139,0.00021633,-0.00076934,0.00003376,-0.00020287,-0.00016868,0.3140
 2544,-0.00010491,0.00001557,-0.00004229,0.00031781,0.00004079,0.000287
 89,0.00018978,0.00123456,0.00039007,0.02707883,0.00504884,-0.00755422,
 0.00088901,-0.00478657,-0.00285463,0.00136165,0.00023719,0.00033042,-0
 .00003761,-0.00002222,-0.00003282,0.00011931,0.00006538,-0.00010000,0.
 00021889,-0.00038777,-0.00005867,-0.00001063,-0.00056295,-0.00032475,-
 0.00043332,0.00049166,-0.00078141,-0.00036788,-0.00038874,0.00023983,-
 0.00034760,-0.00006335,0.00000173,0.00019433,-0.00016784,-0.00002352,0
 .00003651,0.00021080,-0.00011646,0.00006115,-0.00001365,0.00005325,0.0
 0001063,0.00000519,-0.00001753,0.00001303,0.00001038,0.00001146,-0.000
 00872,0.00009581,-0.00001640,-0.00002396,-0.00003346,-0.00001017,-0.00
 002818,0.00002092,0.00000300,0.00002087,-0.00003957,-0.00002186,0.0000
 0731,-0.00000252,-0.00000299,-0.00002893,0.00002225,0.00002777,-0.0401
 7843,-0.05405696,0.01258824,-0.00412976,-0.00178648,0.00206741,-0.0000
 1942,-0.00008574,-0.00013427,-0.02548662,-0.00341539,0.00685227,-0.000
 19134,0.00036154,-0.00003443,-0.00006537,-0.00022725,-0.00008340,0.040
 89696,0.05867106,-0.00031325,-0.00031025,-0.00017947,0.00041372,-0.000
 07176,0.00012287,0.00017559,0.00071534,0.00066778,0.01403780,0.0041283
 6,-0.00476354,0.00051170,-0.00339663,-0.00087242,0.00061420,0.00056937
 ,0.00088255,-0.00002757,-0.00000466,-0.00002415,0.00011590,0.00023520,
 -0.00021551,0.00010718,-0.00017005,-0.00016439,0.00038172,-0.00035409,
 -0.00031573,-0.00055552,-0.00067514,-0.00010038,-0.00035203,-0.0003613
 7,0.00023094,-0.00060917,-0.00003687,0.00024912,0.00038105,-0.00002623
 ,-0.00009273,-0.00006903,0.00035464,-0.00014664,-0.00001891,-0.0000188
 6,0.00002130,0.00001191,0.00002859,0.00000184,0.00003394,0.00002242,-0
 .00001609,0.00000738,0.00010559,-0.00007606,-0.00001921,-0.00005444,-0
 .00002426,-0.00003295,0.00002666,0.00000454,0.00005353,-0.00001878,-0.
 00001286,-0.00003860,0.00007248,-0.00002935,-0.00003894,0.00002050,0.0
 0000528,0.07760211,0.01094198,-0.07388496,-0.02534337,-0.00415733,0.00
 996645,0.00001699,0.00013427,0.00001228,0.01845208,0.00260024,-0.00635
 585,-0.00002911,-0.00004174,-0.00080322,0.00008714,0.00015216,0.000210
 56,-0.08539135,-0.01108866,0.07629947,0.00018899,0.00004367,0.00007191
 ,-0.00004523,0.00011238,-0.00010741,0.00073072,0.00004752,-0.00061456,
 0.00011315,0.00009866,0.00059042,-0.00019513,-0.00003219,-0.00004012,0
 .00007426,-0.00018253,-0.00010800,0.00000917,-0.00002285,0.00002043,-0
 .00003277,0.00000321,0.00001531,0.00001538,-0.00001256,-0.00001694,-0.
 00106852,0.00081552,-0.00066192,-0.00057626,-0.01016481,-0.00641328,-0
 .00067298,-0.00028528,0.00056807,0.00008992,-0.00098076,0.00135659,0.0
 0046127,-0.00058281,0.00007350,0.00016776,0.00098257,0.00011165,-0.000
 50142,0.00009429,-0.00023109,-0.00000696,0.00001379,-0.00004591,-0.000
 03706,-0.00001304,-0.00002821,0.00004306,0.00003444,0.00000184,-0.0000
 3154,-0.00002414,-0.00000860,-0.00000186,-0.00001212,-0.00001019,-0.00
 004865,0.00004125,0.00005002,0.00002288,0.00000059,-0.00000952,-0.0000
 1456,0.00000934,0.00000671,-0.00036555,0.00094022,-0.00072960,0.000086
 01,-0.00026525,0.00014916,0.00080216,0.02548665,0.01845205,-0.00135442
 ,-0.00037703,-0.00065780,-0.04522089,0.00362418,0.00321027,0.00057295,
 -0.01637676,-0.01162284,-0.00000626,0.00004664,-0.00016492,0.04680237,
 0.00007804,0.00012185,0.00007407,0.00010780,0.00011269,0.00000736,-0.0
 0027183,-0.00015050,-0.00049528,0.00021351,-0.00087405,-0.00055479,-0.
 00016916,0.00021861,0.00024724,0.00008053,-0.00012903,-0.00003213,0.00
 002304,0.00000250,-0.00000636,0.00008273,0.00001319,0.00000282,-0.0000
 0962,0.00003122,-0.00001094,-0.00255532,-0.00142800,0.00050687,-0.0006
 5712,-0.02186525,-0.01092970,0.00054624,0.00035690,0.00129193,0.002359
 94,0.00089443,0.00045305,-0.00076574,0.00011336,-0.00012708,0.00002893
 ,-0.00089133,0.00141064,-0.00042114,-0.00005401,-0.00070432,-0.0000465
 8,-0.00005219,-0.00015642,-0.00007884,-0.00006690,0.00001944,-0.000023
 44,0.00001697,0.00004233,-0.00000179,0.00003840,0.00001732,0.00004431,
 -0.00000855,-0.00000641,-0.00017040,-0.00000473,-0.00000649,0.00003780
 ,-0.00002954,0.00002899,0.00002484,-0.00004475,-0.00002273,-0.00045775
 ,0.00017050,-0.00083597,-0.00046318,0.00039795,-0.00013907,0.00007041,
 -0.00341541,-0.00260024,0.00037703,0.00068903,-0.00023946,0.00575952,-
 0.21841546,-0.12639739,-0.00037521,0.00548991,0.00314576,-0.00030474,-
 0.00049144,0.00067904,-0.00306281,0.23925361,0.00014845,0.00005145,-0.
 00002256,-0.00024970,0.00015210,0.00001456,0.00037679,0.00014466,0.000
 30372,0.00011738,-0.00004056,-0.00007079,-0.00018166,-0.00006022,0.000
 10205,-0.00003152,-0.00015431,-0.00004572,-0.00000177,-0.00000150,0.00
 000421,-0.00000335,0.00000341,0.00000120,0.00000936,-0.00001125,-0.000
 02023,0.00012514,0.00107520,-0.00104609,-0.00120383,0.01468457,0.01226
 305,0.00000414,-0.00000514,-0.00090454,0.00013554,0.00004309,0.0003331
 0,0.00000196,0.00034402,-0.00003682,-0.00027255,-0.00029584,-0.0002872
 1,-0.00003620,-0.00022325,0.00005661,-0.00000675,-0.00000059,0.0000159
 1,0.00002168,0.00000382,0.00002629,-0.00002024,-0.00001921,-0.00001707
 ,0.00001492,0.00000660,0.00000504,-0.00000865,-0.00000570,0.00001069,0
 .00007069,-0.00001087,-0.00000400,-0.00000816,-0.00000106,0.00000109,-
 0.00000641,0.00000628,0.00001964,-0.00135114,0.00022352,-0.00076817,0.
 00005881,0.00018088,-0.00013103,-0.00092530,-0.00685226,-0.00635581,-0
 .00065780,0.00023946,-0.00041227,0.00560801,-0.12405383,-0.13384947,0.
 00176855,-0.02120658,-0.01569179,-0.00028935,0.00044515,-0.00059738,-0
 .00320701,0.13533793,0.14710379\\-0.00001687,0.00000025,-0.00001098,-0
 .00002156,-0.00000215,0.00001922,-0.00001972,0.00001283,0.00004569,0.0
 0005720,0.00001693,-0.00000140,-0.00002866,-0.00001616,-0.00001681,0.0
 0001117,-0.00000174,-0.00000061,-0.00001149,-0.00000495,0.00000414,0.0
 0000425,0.00001201,0.00001464,0.00000250,0.00000106,0.00000349,0.00001
 976,0.00001284,-0.00004571,-0.00005735,0.00001701,0.00000120,0.0000215
 5,-0.00000215,-0.00001921,0.00002862,-0.00001616,0.00001684,0.00001688
 ,0.00000024,0.00001098,-0.00001117,-0.00000173,0.00000061,-0.00000423,
 0.00001200,-0.00001465,0.00001149,-0.00000495,-0.00000414,-0.00000250,
 0.00000106,-0.00000349,0.00004369,0.00001556,-0.00000036,0.00000249,-0
 .00002068,-0.00000786,0.00002823,-0.00000560,-0.00001702,-0.00004369,0
 .00001557,0.00000036,-0.00000249,-0.00002068,0.00000786,-0.00002823,-0
 .00000560,0.00001702,-0.00004116,-0.00003699,-0.00005581,-0.00000325,0
 .00000861,0.00001905,0.00000402,0.00000212,0.00001047,0.00002861,0.000
 01887,0.00002402,0.00003890,-0.00003628,0.00005172,0.00000575,0.000007
 78,-0.00001466,-0.00000391,0.00000216,-0.00001028,-0.00002883,0.000018
 93,-0.00002431\\\@


 LET US LEARN TO DREAM, GENTLEMEN, THEN PERHAPS WE SHALL
 DISCOVER THE TRUTH;  BUT LET US BEWARE OF PUBLISHING
 OUR DREAMS ABROAD BEFORE THEY HAVE BEEN SCRUTINIZED
 BY OUR VIGILANT INTELLECT ... LET US ALWAYS ALLOW
 THE FRUIT TO HANG UNTIL IT IS RIPE.  UNRIPE FRUIT
 BRINGS EVEN THE GROWER BUT LITTLE PROFIT; IT DAMAGES
 THE HEALTH OF THOSE WHO CONSUME IT; IT ENDANGERS
 PARTICULARLY THE YOUTH WHO CANNOT YET DISTINGUISH
 BETWEEN RIPE AND UNRIPE FRUIT.

                                  -- KEKULE, 1890
 Job cpu time:       0 days  2 hours 29 minutes 33.8 seconds.
 File lengths (MBytes):  RWF=    352 Int=      0 D2E=      0 Chk=      7 Scr=      1
 Normal termination of Gaussian 09 at Sat May 28 00:16:06 2016.
