 Entering Link 1 = C:\G09W\l1.exe PID=      7272.
  
 Copyright (c) 1988,1990,1992,1993,1995,1998,2003,2009,2010,
            Gaussian, Inc.  All Rights Reserved.
  
 This is part of the Gaussian(R) 09 program.  It is based on
 the Gaussian(R) 03 system (copyright 2003, Gaussian, Inc.),
 the Gaussian(R) 98 system (copyright 1998, Gaussian, Inc.),
 the Gaussian(R) 94 system (copyright 1995, Gaussian, Inc.),
 the Gaussian 92(TM) system (copyright 1992, Gaussian, Inc.),
 the Gaussian 90(TM) system (copyright 1990, Gaussian, Inc.),
 the Gaussian 88(TM) system (copyright 1988, Gaussian, Inc.),
 the Gaussian 86(TM) system (copyright 1986, Carnegie Mellon
 University), and the Gaussian 82(TM) system (copyright 1983,
 Carnegie Mellon University). Gaussian is a federally registered
 trademark of Gaussian, Inc.
  
 This software contains proprietary and confidential information,
 including trade secrets, belonging to Gaussian, Inc.
  
 This software is provided under written license and may be
 used, copied, transmitted, or stored only in accord with that
 written license.
  
 The following legend is applicable only to US Government
 contracts under FAR:
  
                    RESTRICTED RIGHTS LEGEND
  
 Use, reproduction and disclosure by the US Government is
 subject to restrictions as set forth in subparagraphs (a)
 and (c) of the Commercial Computer Software - Restricted
 Rights clause in FAR 52.227-19.
  
 Gaussian, Inc.
 340 Quinnipiac St., Bldg. 40, Wallingford CT 06492
  
  
 ---------------------------------------------------------------
 Warning -- This program may not be used in any manner that
 competes with the business of Gaussian, Inc. or will provide
 assistance to any competitor of Gaussian, Inc.  The licensee
 of this program is prohibited from giving any competitor of
 Gaussian, Inc. access to this program.  By using this program,
 the user acknowledges that Gaussian, Inc. is engaged in the
 business of creating and licensing software in the field of
 computational chemistry and represents and warrants to the
 licensee that it is not a competitor of Gaussian, Inc. and that
 it will not use this program in any manner prohibited above.
 ---------------------------------------------------------------
  

 Cite this work as:
 Gaussian 09, Revision B.01,
 M. J. Frisch, G. W. Trucks, H. B. Schlegel, G. E. Scuseria, 
 M. A. Robb, J. R. Cheeseman, G. Scalmani, V. Barone, B. Mennucci, 
 G. A. Petersson, H. Nakatsuji, M. Caricato, X. Li, H. P. Hratchian, 
 A. F. Izmaylov, J. Bloino, G. Zheng, J. L. Sonnenberg, M. Hada, 
 M. Ehara, K. Toyota, R. Fukuda, J. Hasegawa, M. Ishida, T. Nakajima, 
 Y. Honda, O. Kitao, H. Nakai, T. Vreven, J. A. Montgomery, Jr., 
 J. E. Peralta, F. Ogliaro, M. Bearpark, J. J. Heyd, E. Brothers, 
 K. N. Kudin, V. N. Staroverov, T. Keith, R. Kobayashi, J. Normand, 
 K. Raghavachari, A. Rendell, J. C. Burant, S. S. Iyengar, J. Tomasi, 
 M. Cossi, N. Rega, J. M. Millam, M. Klene, J. E. Knox, J. B. Cross, 
 V. Bakken, C. Adamo, J. Jaramillo, R. Gomperts, R. E. Stratmann, 
 O. Yazyev, A. J. Austin, R. Cammi, C. Pomelli, J. W. Ochterski, 
 R. L. Martin, K. Morokuma, V. G. Zakrzewski, G. A. Voth, 
 P. Salvador, J. J. Dannenberg, S. Dapprich, A. D. Daniels, 
 O. Farkas, J. B. Foresman, J. V. Ortiz, J. Cioslowski, 
 and D. J. Fox, Gaussian, Inc., Wallingford CT, 2010.
 
 ******************************************
 Gaussian 09:  IA32W-G09RevB.01 12-Aug-2010
                07-Jul-2016 
 ******************************************
 ------------------------------------
 # nmr=giao geom=connectivity sp test
 ------------------------------------
 1/38=1,57=2/1;
 2/12=2,17=6,18=5,40=1/2;
 3/11=9,16=1,25=1,30=1/1,2,8,3;
 4//1;
 5/5=2,38=5/2;
 8/6=1,10=90,11=11/1;
 10/13=100,45=16/2;
 6/7=2,8=2,9=2,10=2,28=1/1;
 99/9=1/99;
 ----------
 [No Title]
 ----------
 Symbolic Z-matrix:
 Charge =  0 Multiplicity = 1
 C                    -0.54912  -0.52759   0. 
 N                     0.49864   0.47909   0. 
 C                    -0.13188  -1.69565   0.88378 
 C                    -0.7582   -1.01839  -1.42651 
 C                     0.73383   0.86534   1.36504 
 C                     1.7282   -0.10059  -0.51319 
 C                     1.15644  -2.30484   0.34649 
 C                     2.25589  -1.25093   0.34674 
 H                    -1.48221  -0.07412   0.40309 
 H                    -0.93468  -2.46654   0.88133 
 H                     0.03583  -1.33224   1.92232 
 H                    -1.55827  -1.79178  -1.44957 
 H                     0.18474  -1.46069  -1.81895 
 H                    -1.05609  -0.16922  -2.08143 
 H                     1.53398   1.6382    1.39988 
 H                     1.06162  -0.02227   1.95111 
 H                    -0.19968   1.29051   1.79696 
 H                     2.50741   0.69027  -0.59153 
 H                     1.56305  -0.46164  -1.55297 
 H                     1.46088  -3.1571    0.99435 
 H                     0.98968  -2.66515  -0.69329 
 H                     3.17283  -1.67288  -0.12225 
 H                     2.42175  -0.88969   1.38633 
 
                          Input orientation:                          
 ---------------------------------------------------------------------
 Center     Atomic      Atomic             Coordinates (Angstroms)
 Number     Number       Type             X           Y           Z
 ---------------------------------------------------------------------
      1          6           0       -0.549121   -0.527587    0.000000
      2          7           0        0.498644    0.479089    0.000000
      3          6           0       -0.131875   -1.695652    0.883775
      4          6           0       -0.758200   -1.018393   -1.426508
      5          6           0        0.733832    0.865340    1.365043
      6          6           0        1.728202   -0.100593   -0.513190
      7          6           0        1.156435   -2.304841    0.346490
      8          6           0        2.255889   -1.250929    0.346736
      9          1           0       -1.482211   -0.074120    0.403089
     10          1           0       -0.934676   -2.466544    0.881330
     11          1           0        0.035830   -1.332240    1.922320
     12          1           0       -1.558272   -1.791777   -1.449570
     13          1           0        0.184738   -1.460687   -1.818953
     14          1           0       -1.056089   -0.169215   -2.081434
     15          1           0        1.533982    1.638202    1.399878
     16          1           0        1.061621   -0.022270    1.951108
     17          1           0       -0.199681    1.290513    1.796958
     18          1           0        2.507408    0.690274   -0.591526
     19          1           0        1.563047   -0.461644   -1.552966
     20          1           0        1.460883   -3.157104    0.994353
     21          1           0        0.989683   -2.665149   -0.693289
     22          1           0        3.172832   -1.672877   -0.122247
     23          1           0        2.421747   -0.889688    1.386334
 ---------------------------------------------------------------------
                    Distance matrix (angstroms):
                    1          2          3          4          5
     1  C    0.000000
     2  N    1.453000   0.000000
     3  C    1.523000   2.430661   0.000000
     4  C    1.523000   2.420131   2.487644   0.000000
     5  C    2.334428   1.438001   2.745860   3.683391   0.000000
     6  C    2.373160   1.453000   2.820569   2.803338   2.334429
     7  C    2.487490   2.881495   1.523000   2.909347   3.356500
     8  C    2.917453   2.490200   2.487490   3.504740   2.798607
     9  H    1.113000   2.095783   2.164216   2.182491   2.592062
    10  H    2.164474   3.392330   1.113000   2.730275   3.757572
    11  H    2.164474   2.681497   1.113000   3.455956   2.372156
    12  H    2.172053   3.389541   2.736484   1.113000   4.498451
    13  H    2.172053   2.677659   2.731335   1.113000   3.981173
    14  H    2.172053   2.677659   3.460729   1.113000   4.018996
    15  H    3.315059   2.091680   3.762449   4.505558   1.113000
    16  H    2.580050   2.091680   2.315996   3.963874   1.113000
    17  H    2.580049   2.091680   3.123409   4.004213   1.113000
    18  H    3.342971   2.104670   3.851619   3.779012   2.646579
    19  H    2.622462   2.104670   3.214536   2.390429   3.311081
    20  H    3.455895   3.890571   2.164474   3.919054   4.104396
    21  H    2.723553   3.256993   2.164474   2.510878   4.094697
    22  H    3.896096   3.434703   3.454517   4.193144   3.821426
    23  H    3.298347   2.737480   2.724542   4.247435   2.435084
                    6          7          8          9         10
     6  C    0.000000
     7  C    2.434066   0.000000
     8  C    1.530098   1.523000   0.000000
     9  H    3.338715   3.455687   3.919368   0.000000
    10  H    3.825354   2.164474   3.455896   2.500440   0.000000
    11  H    3.211353   2.164474   2.723553   2.489051   1.819942
    12  H    3.812850   3.295254   4.250536   2.527544   2.505450
    13  H    2.436628   2.519114   3.003976   3.104635   3.091337
    14  H    3.196306   3.918032   4.246800   2.522593   3.751057
    15  H    2.592481   4.098751   3.158692   3.608747   4.817894
    16  H    2.554061   2.791759   2.347315   2.978277   3.332282
    17  H    3.314920   4.107247   3.819934   2.334519   3.936251
    18  H    1.113000   3.416975   2.170683   4.182178   4.897218
    19  H    1.113000   2.677805   2.170684   3.640044   4.022939
    20  H    3.418538   1.112999   2.164473   4.303044   2.495666
    21  H    2.674845   1.113000   2.164474   3.745095   2.494399
    22  H    2.170684   2.164474   1.113000   4.949892   4.302173
    23  H    2.170684   2.164474   1.113000   4.107653   3.742603
                   11         12         13         14         15
    11  H    0.000000
    12  H    3.757922   0.000000
    13  H    3.746438   1.812222   0.000000
    14  H    4.309868   1.812222   1.810096   0.000000
    15  H    3.367630   5.426430   4.667381   4.700506   0.000000
    16  H    1.664060   4.643232   4.129325   4.557157   1.812221
    17  H    2.636288   4.678272   4.559791   4.231568   1.812222
    18  H    4.064318   4.840100   3.395292   3.956900   2.410771
    19  H    3.894604   3.394492   1.722954   2.687874   3.623463
    20  H    2.494399   4.117302   3.524353   4.972232   4.812978
    21  H    3.086728   2.797644   1.834607   3.513092   4.816268
    22  H    3.759929   4.915208   3.442752   4.897263   3.995740
    23  H    2.485102   4.969574   3.950204   4.963853   2.679279
                   16         17         18         19         20
    16  H    0.000000
    17  H    1.827032   0.000000
    18  H    3.010483   3.659709   0.000000
    19  H    3.566933   4.171241   1.772879   0.000000
    20  H    3.301814   4.814867   4.290984   3.710091   0.000000
    21  H    3.739361   4.823192   3.684116   2.433768   1.819941
    22  H    3.388291   4.882507   2.499499   2.470921   2.525964
    23  H    1.709189   3.434206   2.532893   3.091937   2.493609
                   21         22         23
    21  H    0.000000
    22  H    2.465123   0.000000
    23  H    3.086730   1.858314   0.000000
 Stoichiometry    C7H15N
 Framework group  C1[X(C7H15N)]
 Deg. of freedom    63
 Full point group                 C1      NOp   1
 Largest Abelian subgroup         C1      NOp   1
 Largest concise Abelian subgroup C1      NOp   1
                         Standard orientation:                         
 ---------------------------------------------------------------------
 Center     Atomic      Atomic             Coordinates (Angstroms)
 Number     Number       Type             X           Y           Z
 ---------------------------------------------------------------------
      1          6           0        0.841515   -0.778375    0.328116
      2          7           0       -0.400834   -1.072464   -0.365633
      3          6           0        0.648787    0.439842    1.221609
      4          6           0        1.922723   -0.486247   -0.703960
      5          6           0       -1.422274   -1.262710    0.628507
      6          6           0       -0.783672    0.068623   -1.179613
      7          6           0        0.248294    1.636988    0.369566
      8          6           0       -1.054329    1.330447   -0.357576
      9          1           0        1.119030   -1.655686    0.954280
     10          1           0        1.601675    0.664792    1.750921
     11          1           0       -0.152619    0.230258    1.964974
     12          1           0        2.884852   -0.257908   -0.193137
     13          1           0        1.627525    0.386940   -1.327796
     14          1           0        2.064903   -1.369090   -1.366639
     15          1           0       -2.389973   -1.490467    0.128053
     16          1           0       -1.534803   -0.331994    1.228402
     17          1           0       -1.145304   -2.116056    1.287184
     18          1           0       -1.689034   -0.186474   -1.774604
     19          1           0        0.015354    0.277557   -1.925718
     20          1           0        0.106184    2.525875    1.024128
     21          1           0        1.048149    1.844442   -0.376063
     22          1           0       -1.302483    2.171930   -1.042481
     23          1           0       -1.853874    1.121725    0.388032
 ---------------------------------------------------------------------
 Rotational constants (GHZ):      2.4649967      2.3029883      1.8498568
 Standard basis: STO-3G (5D, 7F)
 There are    55 symmetry adapted basis functions of A   symmetry.
 Integral buffers will be    262144 words long.
 Raffenetti 1 integral format.
 Two-electron integral symmetry is turned on.
    55 basis functions,   165 primitive gaussians,    55 cartesian basis functions
    32 alpha electrons       32 beta electrons
       nuclear repulsion energy       435.7024409335 Hartrees.
 NAtoms=   23 NActive=   23 NUniq=   23 SFac= 1.00D+00 NAtFMM=   50 NAOKFM=F Big=F
 One-electron integrals computed using PRISM.
 NBasis=    55 RedAO= T  NBF=    55
 NBsUse=    55 1.00D-06 NBFU=    55
 Harris functional with IExCor=  205 diagonalized for initial guess.
 ExpMin= 1.69D-01 ExpMax= 9.91D+01 ExpMxC= 9.91D+01 IAcc=1 IRadAn=         1 AccDes= 0.00D+00
 HarFok:  IExCor=  205 AccDes= 0.00D+00 IRadAn=         1 IDoV= 1
 ScaDFX=  1.000000  1.000000  1.000000  1.000000
 FoFCou: FMM=F IPFlag=           0 FMFlag=      100000 FMFlg1=           0
         NFxFlg=           0 DoJE=T BraDBF=F KetDBF=T FulRan=T
         Omega=  0.000000  0.000000  1.000000  0.000000  0.000000 ICntrl=     500 IOpCl=  0
         NMat0=    1 NMatS0=    1 NMatT0=    0 NMatD0=    1 NMtDS0=    0 NMtDT0=    0
         I1Cent=           4 NGrid=           0.
 Petite list used in FoFCou.
 Initial guess orbital symmetries:
       Occupied  (A) (A) (A) (A) (A) (A) (A) (A) (A) (A) (A) (A)
                 (A) (A) (A) (A) (A) (A) (A) (A) (A) (A) (A) (A)
                 (A) (A) (A) (A) (A) (A) (A) (A)
       Virtual   (A) (A) (A) (A) (A) (A) (A) (A) (A) (A) (A) (A)
                 (A) (A) (A) (A) (A) (A) (A) (A) (A) (A) (A)
 The electronic state of the initial guess is 1-A.
 Requested convergence on RMS density matrix=1.00D-08 within 128 cycles.
 Requested convergence on MAX density matrix=1.00D-06.
 Requested convergence on             energy=1.00D-06.
 No special actions if energy rises.
 Keep R1 ints in memory in canonical form, NReq=2014494.
 SCF Done:  E(RHF) =  -324.314532379     A.U. after   10 cycles
             Convg  =    0.5228D-08             -V/T =  2.0087
 Range of M.O.s used for correlation:     1    55
 NBasis=    55 NAE=    32 NBE=    32 NFC=     0 NFV=     0
 NROrb=     55 NOA=    32 NOB=    32 NVA=    23 NVB=    23
          Differentiating once with respect to magnetic field using GIAOs.
          Electric field/nuclear overlap derivatives assumed to be zero.
          Keep R3 ints in memory in canonical form, NReq=1987031.
 FoFCou: FMM=F IPFlag=           0 FMFlag=           0 FMFlg1=           0
         NFxFlg=           0 DoJE=F BraDBF=F KetDBF=T FulRan=T
         Omega=  0.000000  0.000000  1.000000  0.000000  0.000000 ICntrl=    6100 IOpCl=  0
         NMat0=    1 NMatS0=    1 NMatT0=    0 NMatD0=    1 NMtDS0=    0 NMtDT0=    0
         I1Cent=           7 NGrid=          23.
 Symmetry not used in FoFCou.
          There are     3 degrees of freedom in the 1st order CPHF.  IDoFFX=0.
      3 vectors produced by pass  0 Test12= 2.45D-14 3.33D-08 XBig12= 2.90D+00 3.56D-01.
 AX will form     3 AO Fock derivatives at one time.
      3 vectors produced by pass  1 Test12= 2.45D-14 3.33D-08 XBig12= 5.00D-03 1.39D-02.
      3 vectors produced by pass  2 Test12= 2.45D-14 3.33D-08 XBig12= 2.96D-05 1.70D-03.
      3 vectors produced by pass  3 Test12= 2.45D-14 3.33D-08 XBig12= 5.98D-07 2.12D-04.
      3 vectors produced by pass  4 Test12= 2.45D-14 3.33D-08 XBig12= 6.19D-09 1.37D-05.
      3 vectors produced by pass  5 Test12= 2.45D-14 3.33D-08 XBig12= 7.14D-11 2.32D-06.
      3 vectors produced by pass  6 Test12= 2.45D-14 3.33D-08 XBig12= 7.40D-13 1.98D-07.
 Inverted reduced A of dimension    21 with in-core refinement.
 Calculating GIAO nuclear magnetic shielding tensors.
 SCF GIAO Magnetic shielding tensor (ppm):
  1  C    Isotropic =   199.9381   Anisotropy =    29.7036
   XX=   217.4706   YX=     2.0594   ZX=     4.5908
   XY=     3.6882   YY=   190.4285   ZY=     2.5783
   XZ=     9.9622   YZ=     0.4939   ZZ=   191.9152
   Eigenvalues:   189.2903   190.7835   219.7405
  2  N    Isotropic =   312.5301   Anisotropy =    37.6819
   XX=   330.2237   YX=     9.9662   ZX=    -2.6661
   XY=    14.0523   YY=   305.2100   ZY=   -29.1500
   XZ=     4.4065   YZ=   -16.6042   ZZ=   302.1565
   Eigenvalues:   279.1809   320.7580   337.6513
  3  C    Isotropic =   220.5480   Anisotropy =     9.8468
   XX=   219.7999   YX=    -1.1982   ZX=     2.2130
   XY=    -9.9698   YY=   221.8105   ZY=    -1.3867
   XZ=     1.2091   YZ=    -1.2664   ZZ=   220.0337
   Eigenvalues:   215.0846   219.4469   227.1126
  4  C    Isotropic =   221.4043   Anisotropy =    18.9062
   XX=   228.3413   YX=    -0.3569   ZX=    -8.2899
   XY=     2.2363   YY=   213.7746   ZY=     2.0926
   XZ=    -8.0820   YZ=     3.2695   ZZ=   222.0971
   Eigenvalues:   212.0463   218.1582   234.0085
  5  C    Isotropic =   205.5395   Anisotropy =    40.6624
   XX=   214.6238   YX=     9.7955   ZX=   -16.0607
   XY=     7.3565   YY=   194.2489   ZY=    -8.4991
   XZ=   -17.7981   YZ=   -10.5409   ZZ=   207.7457
   Eigenvalues:   189.3256   194.6451   232.6477
  6  C    Isotropic =   203.7949   Anisotropy =    29.7484
   XX=   188.9488   YX=    -6.5800   ZX=     6.2330
   XY=    -1.9589   YY=   215.4251   ZY=   -11.6213
   XZ=     3.5940   YZ=    -9.2786   ZZ=   207.0107
   Eigenvalues:   187.5869   200.1706   223.6272
  7  C    Isotropic =   218.4308   Anisotropy =     6.5215
   XX=   219.7241   YX=     1.0162   ZX=     3.9720
   XY=     0.9179   YY=   217.5610   ZY=    -2.2685
   XZ=     3.5802   YZ=     1.2992   ZZ=   218.0073
   Eigenvalues:   214.6581   217.8558   222.7785
  8  C    Isotropic =   221.8484   Anisotropy =    11.9798
   XX=   224.8942   YX=    -1.6423   ZX=     6.3954
   XY=     2.0037   YY=   217.9154   ZY=     3.3304
   XZ=     5.4421   YZ=    -3.1154   ZZ=   222.7355
   Eigenvalues:   217.7895   217.9208   229.8349
  9  H    Isotropic =    31.6438   Anisotropy =    13.4260
   XX=    30.2751   YX=    -4.3859   ZX=     2.0366
   XY=    -3.4153   YY=    34.9092   ZY=    -5.3306
   XZ=     2.1502   YZ=    -6.3365   ZZ=    29.7472
   Eigenvalues:    25.9002    28.4368    40.5945
 10  H    Isotropic =    32.4606   Anisotropy =    14.5718
   XX=    35.4438   YX=     1.4616   ZX=     7.4451
   XY=     1.1845   YY=    28.4665   ZY=     2.1768
   XZ=     7.0007   YZ=     2.1448   ZZ=    33.4716
   Eigenvalues:    26.7385    28.4682    42.1752
 11  H    Isotropic =    31.6450   Anisotropy =    10.2702
   XX=    31.2499   YX=     2.6661   ZX=    -3.7063
   XY=     2.2655   YY=    27.3468   ZY=     0.5179
   XZ=    -4.0027   YZ=     0.0567   ZZ=    36.3383
   Eigenvalues:    25.7337    30.7095    38.4918
 12  H    Isotropic =    32.1877   Anisotropy =    13.9320
   XX=    41.1570   YX=     0.9852   ZX=     1.4856
   XY=     1.2045   YY=    26.8490   ZY=     1.2597
   XZ=     1.8270   YZ=     1.0522   ZZ=    28.5572
   Eigenvalues:    26.2619    28.8255    41.4757
 13  H    Isotropic =    31.3765   Anisotropy =     6.3655
   XX=    32.1044   YX=    -1.6521   ZX=    -3.0535
   XY=    -1.6194   YY=    30.8035   ZY=    -4.3735
   XZ=    -2.4876   YZ=    -4.1991   ZZ=    31.2216
   Eigenvalues:    25.2975    33.2118    35.6202
 14  H    Isotropic =    31.6319   Anisotropy =    14.3657
   XX=    30.6699   YX=    -3.6786   ZX=    -4.6563
   XY=    -3.2841   YY=    32.4084   ZY=     6.0320
   XZ=    -4.0464   YZ=     6.3389   ZZ=    31.8173
   Eigenvalues:    25.7013    27.9853    41.2091
 15  H    Isotropic =    31.6566   Anisotropy =    14.0776
   XX=    38.5888   YX=     5.5450   ZX=     2.1448
   XY=     5.1200   YY=    28.8092   ZY=    -0.5214
   XZ=     1.0125   YZ=    -0.6962   ZZ=    27.5719
   Eigenvalues:    25.6747    28.2534    41.0417
 16  H    Isotropic =    31.1404   Anisotropy =     5.5045
   XX=    30.9879   YX=     1.1038   ZX=    -4.2495
   XY=     1.6897   YY=    31.7805   ZY=     1.0830
   XZ=    -3.7225   YZ=     1.8959   ZZ=    30.6527
   Eigenvalues:    26.0972    32.5138    34.8100
 17  H    Isotropic =    31.6990   Anisotropy =    13.7019
   XX=    29.0113   YX=     2.3286   ZX=    -1.5578
   XY=     1.6593   YY=    34.8079   ZY=    -6.7364
   XZ=    -0.8613   YZ=    -7.5065   ZZ=    31.2776
   Eigenvalues:    25.6801    28.5832    40.8335
 18  H    Isotropic =    31.6763   Anisotropy =    14.5416
   XX=    33.0170   YX=     1.9805   ZX=     7.7324
   XY=     1.3027   YY=    28.0244   ZY=     0.8584
   XZ=     7.3332   YZ=     1.7285   ZZ=    33.9874
   Eigenvalues:    25.9007    27.7575    41.3707
 19  H    Isotropic =    31.1923   Anisotropy =    10.3287
   XX=    31.4990   YX=    -0.5050   ZX=    -2.6193
   XY=     0.4597   YY=    25.8553   ZY=    -2.9982
   XZ=    -3.3845   YZ=    -1.8962   ZZ=    36.2226
   Eigenvalues:    25.2234    30.2754    38.0781
 20  H    Isotropic =    32.1392   Anisotropy =    15.1409
   XX=    27.1277   YX=    -0.6246   ZX=     1.0442
   XY=    -0.5553   YY=    38.6802   ZY=     6.2371
   XZ=     1.0365   YZ=     6.6154   ZZ=    30.6095
   Eigenvalues:    25.8958    28.2886    42.2331
 21  H    Isotropic =    32.0714   Anisotropy =    10.5009
   XX=    33.4863   YX=     2.8734   ZX=    -4.8729
   XY=     3.0376   YY=    32.8478   ZY=    -2.3987
   XZ=    -4.9145   YZ=    -1.9842   ZZ=    29.8802
   Eigenvalues:    26.4656    30.6767    39.0720
 22  H    Isotropic =    32.3003   Anisotropy =    15.2540
   XX=    29.3953   YX=    -4.2860   ZX=     3.9278
   XY=    -4.1194   YY=    36.2202   ZY=    -5.4601
   XZ=     3.9464   YZ=    -6.0056   ZZ=    31.2853
   Eigenvalues:    26.2748    28.1565    42.4696
 23  H    Isotropic =    31.7698   Anisotropy =    10.1155
   XX=    35.3782   YX=    -1.4347   ZX=    -5.2687
   XY=    -1.7646   YY=    30.5307   ZY=    -0.7761
   XZ=    -5.1692   YZ=    -1.0574   ZZ=    29.4006
   Eigenvalues:    25.8262    30.9697    38.5135
 End of Minotr Frequency-dependent properties file   721 does not exist.
 End of Minotr Frequency-dependent properties file   722 does not exist.

 **********************************************************************

            Population analysis using the SCF density.

 **********************************************************************

 Orbital symmetries:
       Occupied  (A) (A) (A) (A) (A) (A) (A) (A) (A) (A) (A) (A)
                 (A) (A) (A) (A) (A) (A) (A) (A) (A) (A) (A) (A)
                 (A) (A) (A) (A) (A) (A) (A) (A)
       Virtual   (A) (A) (A) (A) (A) (A) (A) (A) (A) (A) (A) (A)
                 (A) (A) (A) (A) (A) (A) (A) (A) (A) (A) (A)
 The electronic state is 1-A.
 Alpha  occ. eigenvalues --  -15.31581 -11.07152 -11.06125 -11.05759 -11.03859
 Alpha  occ. eigenvalues --  -11.03826 -11.03388 -11.03069  -1.20575  -1.02968
 Alpha  occ. eigenvalues --   -0.99503  -0.92719  -0.85323  -0.79826  -0.78846
 Alpha  occ. eigenvalues --   -0.68607  -0.63982  -0.60846  -0.60007  -0.56413
 Alpha  occ. eigenvalues --   -0.53344  -0.52133  -0.51185  -0.50169  -0.48668
 Alpha  occ. eigenvalues --   -0.45881  -0.44743  -0.44177  -0.43082  -0.39372
 Alpha  occ. eigenvalues --   -0.39064  -0.27364
 Alpha virt. eigenvalues --    0.53675   0.56507   0.58160   0.61764   0.63612
 Alpha virt. eigenvalues --    0.64049   0.65642   0.66367   0.67935   0.68894
 Alpha virt. eigenvalues --    0.69690   0.71458   0.71866   0.73215   0.74004
 Alpha virt. eigenvalues --    0.76211   0.77871   0.79556   0.80201   0.82502
 Alpha virt. eigenvalues --    0.84065   0.85608   0.88406
          Condensed to atoms (all electrons):
              1          2          3          4          5          6
     1  C    4.727359   0.325482   0.363138   0.366888  -0.041951  -0.036274
     2  N    0.325482   6.498959  -0.025027  -0.024813   0.333394   0.330571
     3  C    0.363138  -0.025027   4.790815  -0.027843  -0.010821  -0.005404
     4  C    0.366888  -0.024813  -0.027843   4.750770   0.001374  -0.008452
     5  C   -0.041951   0.333394  -0.010821   0.001374   4.721822  -0.041826
     6  C   -0.036274   0.330571  -0.005404  -0.008452  -0.041826   4.738412
     7  C   -0.024226  -0.002607   0.364723  -0.005892   0.000296  -0.028342
     8  C   -0.003647  -0.021242  -0.024253   0.000149  -0.009121   0.360335
     9  H    0.380965  -0.022246  -0.024777  -0.020500  -0.003348   0.001857
    10  H   -0.020843   0.000957   0.378620  -0.002176   0.000184  -0.000001
    11  H   -0.021829  -0.001585   0.383851   0.001289  -0.007893   0.000226
    12  H   -0.020228   0.000943  -0.002245   0.377984  -0.000031   0.000138
    13  H   -0.020651  -0.001662  -0.002448   0.385036   0.000011  -0.005801
    14  H   -0.020360  -0.001163   0.001340   0.378781   0.000021   0.000035
    15  H    0.002154  -0.021410   0.000149  -0.000029   0.378478  -0.003277
    16  H   -0.004290  -0.022182  -0.006831  -0.000013   0.385259  -0.004857
    17  H   -0.003694  -0.021301  -0.000261   0.000047   0.379361   0.002164
    18  H    0.001902  -0.021694  -0.000022   0.000143  -0.002699   0.377334
    19  H   -0.003242  -0.020861  -0.000022  -0.006475   0.002046   0.382473
    20  H    0.001304  -0.000039  -0.021853   0.000075   0.000003   0.001474
    21  H   -0.002384   0.000166  -0.022492  -0.003982  -0.000026  -0.002761
    22  H   -0.000020   0.000819   0.001319   0.000008   0.000138  -0.020186
    23  H    0.000183  -0.001234  -0.002238  -0.000020  -0.006178  -0.021935
              7          8          9         10         11         12
     1  C   -0.024226  -0.003647   0.380965  -0.020843  -0.021829  -0.020228
     2  N   -0.002607  -0.021242  -0.022246   0.000957  -0.001585   0.000943
     3  C    0.364723  -0.024253  -0.024777   0.378620   0.383851  -0.002245
     4  C   -0.005892   0.000149  -0.020500  -0.002176   0.001289   0.377984
     5  C    0.000296  -0.009121  -0.003348   0.000184  -0.007893  -0.000031
     6  C   -0.028342   0.360335   0.001857  -0.000001   0.000226   0.000138
     7  C    4.761537   0.361373   0.001255  -0.021308  -0.022659   0.000040
     8  C    0.361373   4.776788  -0.000028   0.001324  -0.002435   0.000000
     9  H    0.001255  -0.000028   0.638464  -0.001756  -0.002194  -0.001770
    10  H   -0.021308   0.001324  -0.001756   0.642174  -0.020246  -0.000055
    11  H   -0.022659  -0.002435  -0.002194  -0.020246   0.647863   0.000030
    12  H    0.000040   0.000000  -0.001770  -0.000055   0.000030   0.634870
    13  H   -0.003802   0.000058   0.001670   0.000076   0.000000  -0.020213
    14  H    0.000087   0.000002  -0.002218   0.000019  -0.000035  -0.019472
    15  H   -0.000001  -0.000257   0.000045  -0.000001   0.000100   0.000001
    16  H   -0.000149  -0.005354  -0.000199   0.000060  -0.005455   0.000000
    17  H    0.000001   0.000111   0.000308  -0.000005   0.000036  -0.000001
    18  H    0.001461  -0.024137  -0.000040   0.000003  -0.000014  -0.000001
    19  H   -0.003016  -0.023932   0.000035  -0.000008  -0.000003   0.000090
    20  H    0.379002  -0.022216  -0.000031  -0.002333  -0.002094  -0.000009
    21  H    0.382793  -0.022646   0.000008  -0.002113   0.001813   0.000072
    22  H   -0.021330   0.380401   0.000003  -0.000033   0.000016   0.000000
    23  H   -0.022710   0.383828  -0.000016   0.000012   0.000004   0.000001
             13         14         15         16         17         18
     1  C   -0.020651  -0.020360   0.002154  -0.004290  -0.003694   0.001902
     2  N   -0.001662  -0.001163  -0.021410  -0.022182  -0.021301  -0.021694
     3  C   -0.002448   0.001340   0.000149  -0.006831  -0.000261  -0.000022
     4  C    0.385036   0.378781  -0.000029  -0.000013   0.000047   0.000143
     5  C    0.000011   0.000021   0.378478   0.385259   0.379361  -0.002699
     6  C   -0.005801   0.000035  -0.003277  -0.004857   0.002164   0.377334
     7  C   -0.003802   0.000087  -0.000001  -0.000149   0.000001   0.001461
     8  C    0.000058   0.000002  -0.000257  -0.005354   0.000111  -0.024137
     9  H    0.001670  -0.002218   0.000045  -0.000199   0.000308  -0.000040
    10  H    0.000076   0.000019  -0.000001   0.000060  -0.000005   0.000003
    11  H    0.000000  -0.000035   0.000100  -0.005455   0.000036  -0.000014
    12  H   -0.020213  -0.019472   0.000001   0.000000  -0.000001  -0.000001
    13  H    0.638159  -0.020393  -0.000001   0.000000  -0.000001   0.000055
    14  H   -0.020393   0.624112  -0.000001   0.000000   0.000001  -0.000018
    15  H   -0.000001  -0.000001   0.629778  -0.023070  -0.018850   0.000290
    16  H    0.000000   0.000000  -0.023070   0.661799  -0.022058  -0.000232
    17  H   -0.000001   0.000001  -0.018850  -0.022058   0.627737   0.000042
    18  H    0.000055  -0.000018   0.000290  -0.000232   0.000042   0.641922
    19  H   -0.004535  -0.000010   0.000065  -0.000021  -0.000054  -0.021851
    20  H    0.000038   0.000000  -0.000001   0.000088  -0.000001  -0.000041
    21  H   -0.003066   0.000037   0.000001  -0.000037   0.000001   0.000035
    22  H    0.000038   0.000000  -0.000005   0.000053   0.000000  -0.001808
    23  H   -0.000019   0.000000   0.000051  -0.004654   0.000066  -0.001979
             19         20         21         22         23
     1  C   -0.003242   0.001304  -0.002384  -0.000020   0.000183
     2  N   -0.020861  -0.000039   0.000166   0.000819  -0.001234
     3  C   -0.000022  -0.021853  -0.022492   0.001319  -0.002238
     4  C   -0.006475   0.000075  -0.003982   0.000008  -0.000020
     5  C    0.002046   0.000003  -0.000026   0.000138  -0.006178
     6  C    0.382473   0.001474  -0.002761  -0.020186  -0.021935
     7  C   -0.003016   0.379002   0.382793  -0.021330  -0.022710
     8  C   -0.023932  -0.022216  -0.022646   0.380401   0.383828
     9  H    0.000035  -0.000031   0.000008   0.000003  -0.000016
    10  H   -0.000008  -0.002333  -0.002113  -0.000033   0.000012
    11  H   -0.000003  -0.002094   0.001813   0.000016   0.000004
    12  H    0.000090  -0.000009   0.000072   0.000000   0.000001
    13  H   -0.004535   0.000038  -0.003066   0.000038  -0.000019
    14  H   -0.000010   0.000000   0.000037   0.000000   0.000000
    15  H    0.000065  -0.000001   0.000001  -0.000005   0.000051
    16  H   -0.000021   0.000088  -0.000037   0.000053  -0.004654
    17  H   -0.000054  -0.000001   0.000001   0.000000   0.000066
    18  H   -0.021851  -0.000041   0.000035  -0.001808  -0.001979
    19  H    0.641517   0.000023  -0.000020  -0.001865   0.001735
    20  H    0.000023   0.645963  -0.020727  -0.001921  -0.002251
    21  H   -0.000020  -0.020727   0.646277  -0.002417   0.001795
    22  H   -0.001865  -0.001921  -0.002417   0.633327  -0.018566
    23  H    0.001735  -0.002251   0.001795  -0.018566   0.640912
 Mulliken atomic charges:
              1
     1  C    0.054265
     2  N   -0.282225
     3  C   -0.107419
     4  C   -0.162346
     5  C   -0.078494
     6  C   -0.015903
     7  C   -0.096527
     8  C   -0.105099
     9  H    0.054513
    10  H    0.047449
    11  H    0.051212
    12  H    0.049857
    13  H    0.057450
    14  H    0.059235
    15  H    0.055789
    16  H    0.052145
    17  H    0.056351
    18  H    0.051349
    19  H    0.057932
    20  H    0.045546
    21  H    0.049674
    22  H    0.052030
    23  H    0.053214
 Sum of Mulliken atomic charges =   0.00000
 Mulliken charges with hydrogens summed into heavy atoms:
              1
     1  C    0.108779
     2  N   -0.282225
     3  C   -0.008758
     4  C    0.004197
     5  C    0.085791
     6  C    0.093378
     7  C   -0.001307
     8  C    0.000145
 Sum of Mulliken charges with hydrogens summed into heavy atoms =   0.00000
 Electronic spatial extent (au):  <R**2>=            893.7720
 Charge=              0.0000 electrons
 Dipole moment (field-independent basis, Debye):
    X=             -0.0303    Y=              1.0280    Z=              0.6485  Tot=              1.2158
 Quadrupole moment (field-independent basis, Debye-Ang):
   XX=            -49.0059   YY=            -52.2680   ZZ=            -49.7159
   XY=             -0.3246   XZ=             -0.3232   YZ=             -2.1046
 Traceless Quadrupole moment (field-independent basis, Debye-Ang):
   XX=              1.3241   YY=             -1.9381   ZZ=              0.6141
   XY=             -0.3246   XZ=             -0.3232   YZ=             -2.1046
 Octapole moment (field-independent basis, Debye-Ang**2):
  XXX=             -2.0413  YYY=             -0.2255  ZZZ=             -1.6164  XYY=              0.8783
  XXY=             -1.7059  XXZ=              0.1260  XZZ=             -0.5802  YZZ=              0.3171
  YYZ=              2.2943  XYZ=             -0.1288
 Hexadecapole moment (field-independent basis, Debye-Ang**3):
 XXXX=           -462.6152 YYYY=           -411.3757 ZZZZ=           -274.8490 XXXY=              5.0307
 XXXZ=              7.3787 YYYX=             -2.8679 YYYZ=             -6.4520 ZZZX=             -0.7959
 ZZZY=             -1.3170 XXYY=           -145.9989 XXZZ=           -122.1276 YYZZ=           -110.5377
 XXYZ=              2.0910 YYXZ=             -1.2777 ZZXY=             -1.1511
 N-N= 4.357024409335D+02 E-N=-1.626075612314D+03  KE= 3.215127952695D+02

 Test job not archived.
 1|1|UNPC-SEAVERN205-PC03|SP|RHF|STO-3G|C7H15N1|SLC02014|07-Jul-2016|0|
 |# nmr=giao geom=connectivity sp test||[No Title]||0,1|C,0,-0.549121,-
 0.527587,0.|N,0,0.498644,0.479089,0.|C,0,-0.131875,-1.695652,0.883775|
 C,0,-0.7582,-1.018393,-1.426508|C,0,0.733832,0.86534,1.365043|C,0,1.72
 8202,-0.100593,-0.51319|C,0,1.156435,-2.304841,0.34649|C,0,2.255889,-1
 .250929,0.346736|H,0,-1.482211,-0.07412,0.403089|H,0,-0.934676,-2.4665
 44,0.88133|H,0,0.03583,-1.33224,1.92232|H,0,-1.558272,-1.791777,-1.449
 57|H,0,0.184738,-1.460687,-1.818953|H,0,-1.056089,-0.169215,-2.081434|
 H,0,1.533982,1.638202,1.399878|H,0,1.061621,-0.02227,1.951108|H,0,-0.1
 99681,1.290513,1.796958|H,0,2.507408,0.690274,-0.591526|H,0,1.563047,-
 0.461644,-1.552966|H,0,1.460883,-3.157104,0.994353|H,0,0.989683,-2.665
 149,-0.693289|H,0,3.172832,-1.672877,-0.122247|H,0,2.421747,-0.889688,
 1.386334||Version=IA32W-G09RevB.01|State=1-A|HF=-324.3145324|RMSD=5.22
 8e-009|Dipole=0.1175323,-0.4016076,0.2317388|Quadrupole=0.942173,-1.70
 8916,0.766743,0.5133839,-0.3702081,1.2619388|PG=C01 [X(C7H15N1)]||@


 HE WHO LOVES TO READ, AND KNOWS HOW TO REFLECT,
 HAS LAID BY A PERPETUAL FEAST FOR HIS OLD AGE.
 -- UNCLE ESEK, "SCRIBNER'S MONTHLY", SEPT. 1880
 Job cpu time:  0 days  0 hours  0 minutes 10.0 seconds.
 File lengths (MBytes):  RWF=      5 Int=      0 D2E=      0 Chk=      1 Scr=      1
 Normal termination of Gaussian 09 at Thu Jul 07 14:11:29 2016.
